
                                 *****************
                                 * O   R   C   A *
                                 *****************

                                            #,                                       
                                            ###                                      
                                            ####                                     
                                            #####                                    
                                            ######                                   
                                           ########,                                 
                                     ,,################,,,,,                         
                               ,,#################################,,                 
                          ,,##########################################,,             
                       ,#########################################, ''#####,          
                    ,#############################################,,   '####,        
                  ,##################################################,,,,####,       
                ,###########''''           ''''###############################       
              ,#####''   ,,,,##########,,,,          '''####'''          '####       
            ,##' ,,,,###########################,,,                        '##       
           ' ,,###''''                  '''############,,,                           
         ,,##''                                '''############,,,,        ,,,,,,###''
      ,#''                                            '''#######################'''  
     '                                                          ''''####''''         
             ,#######,   #######,   ,#######,      ##                                
            ,#'     '#,  ##    ##  ,#'     '#,    #''#        ,####,   ,####,        
            ##       ##  ##   ,#'  ##            #'  '#       #'       #'  '#        
            ##       ##  #######   ##           ,######,      #####,   #    #        
            '#,     ,#'  ##    ##  '#,     ,#' ,#      #,     #,   #   #,  ,#        
             '#######'   ##     ##  '#######'  #'      '#     '####' # '####'        



                #########################################################
                #                        -***-                          #
                #          Department of theory and spectroscopy        #
                #                                                       #
                #                      Frank Neese                      #
                #                                                       #
                #     Directorship, Architecture, Infrastructure        #
                #                    SHARK, DRIVERS                     #
                #        Core code/Algorithms in most modules           #
                #                                                       #
                #        Max Planck Institute fuer Kohlenforschung      #
                #                Kaiser Wilhelm Platz 1                 #
                #                 D-45470 Muelheim/Ruhr                 #
                #                      Germany                          #
                #                                                       #
                #                  All rights reserved                  #
                #                        -***-                          #
                #########################################################


                         Program Version 6.0.1  -  RELEASE   -


 With contributions from (in alphabetic order):
[Max-Planck-Institut fuer Kohlenforschung]                               
  Daniel Aravena         : Magnetic Suceptibility                        
  Michael Atanasov       : Ab Initio Ligand Field Theory (pilot matlab implementation)
  Alexander A. Auer      : GIAO ZORA, VPT2 properties, NMR spectrum      
  Ute Becker             : All parallelization in ORCA, NUMFREQ, NUMCALC 
  Giovanni Bistoni       : ED, misc. LED, open-shell LED, HFLD           
  Martin Brehm           : Molecular dynamics                            
  Dmytro Bykov           : pre 5.0 version of the SCF Hessian            
  Marcos Casanova-Páez   : Triplet and SCS-CIS(D). UHF-(DLPNO)-IP/EA/STEOM-CCSD. UHF-CVS-IP/STEOM-CCSD   
  Vijay G. Chilkuri      : MRCI spin determinant printing, contributions to CSF-ICE 
  Pauline Colinet        : FMM embedding                                 
  Dipayan Datta          : RHF DLPNO-CCSD density                        
  Achintya Kumar Dutta   : EOM-CC, STEOM-CC                              
  Nicolas Foglia         : Exact transition moments, OPA infrastructure, MCD improvements    
  Dmitry Ganyushin       : Spin-Orbit,Spin-Spin,Magnetic field MRCI      
  Miquel Garcia-Rates    : C-PCM and meta-GGA Hessian, CCSD/C-PCM, Gaussian charge scheme 
  Tiago L. C. Gouveia    : GS-ROHF, GS-ROCIS                             
  Yang Guo               : DLPNO-NEVPT2, F12-NEVPT2, CIM, IAO-localization        
  Andreas Hansen         : Spin unrestricted coupled pair/coupled cluster methods 
  Ingolf Harden          : AUTO-CI MPn and infrastructure                
  Benjamin Helmich-Paris : MC-RPA, TRAH-(SCF,CASSCF), AVAS, COSX integrals, SCF dyn. polar. 
  Lee Huntington         : MR-EOM, pCC                                   
  Robert Izsak           : Overlap fitted RIJCOSX, COSX-SCS-MP3, EOM     
  Riya Kayal             : Wick's Theorem for AUTO-CI, AUTO-CI UHF-CCSDT 
  Emily Kempfer          : AUTO-CI, RHF CISDT and CCSDT                  
  Christian Kollmar      : KDIIS, OOCD, Brueckner-CCSD(T), CCSD density, CASPT2, CASPT2-K, improved NEVPT2 
  Axel Koslowski         : Symmetry handling                             
  Simone Kossmann        : meta-GGA functionals, TD-DFT gradient, OOMP2, (MP2 Hessian; deprecated post 5.0) 
  Lucas Lang             : DCDCAS                                        
  Marvin Lechner         : AUTO-CI (C++ implementation), FIC-MRCC        
  Spencer Leger          : CASSCF response                               
  Dagmar Lenk            : GEPOL surface, SMD, ORCA-2-JSON               
  Dimitrios Liakos       : Extrapolation schemes; Compound Job, initial MDCI parallelization 
  Dimitrios Manganas     : Further ROCIS development; embedding schemes. LFT, Crystal Embedding 
  Dimitrios Pantazis     : SARC Basis sets                               
  Anastasios Papadopoulos: AUTO-CI, single reference methods and gradients 
  Taras Petrenko         : pre 6.0 DFT Hessian and TD-DFT gradient, (ASA, deprecated), ECA, 1-Electron XAS/XES, NRVS 
  Peter Pinski           : DLPNO-MP2, DLPNO-MP2 Gradient                 
  Christoph Reimann      : Effective Core Potentials                     
  Marius Retegan         : Local ZFS, SOC                                
  Christoph Riplinger    : Optimizer, TS searches, QM/MM, DLPNO-CCSD(T), (RO)-DLPNO pert. Triples 
  Michael Roemelt        : Original ROCIS implementation                 
  Masaaki Saitow         : Open-shell DLPNO-CCSD energy and density      
  Barbara Sandhoefer     : DKH picture change effects                    
  Kantharuban Sivalingam : CASSCF convergence/infrastructure, NEVPT2 and variants, FIC-MRCI 
  Bernardo de Souza      : ESD, SOC TD-DFT                               
  Georgi L. Stoychev     : AutoAux, RI-MP2 NMR, DLPNO-MP2 response, X2C  
  Van Anh Tran           : RI-MP2 g-tensors                              
  Willem Van den Heuvel  : Paramagnetic NMR                              
  Zikuan Wang            : NOTCH, Electric field optimization            
  Frank Wennmohs         : Technical directorship and infrastructure     
  Hang Xu                : AUTO-CI-Response properties                   
                                                                         
[FACCTs GmbH]                                                            
  Markus Bursch, Miquel Garcia-Rates, Christoph Riplinger, Bernardo de Souza, Georgi L. Stoychev 
                                                                 
  APM, Basis sets (HGBS, AHGBS, def-TZVP (Ac-Lr), def2-XVPD (La-Lu)), CI-OPT, improved COSX, DLPNO-Multilevel,           
  DOCKER, DRACO, updates on ESD, GOAT, IRC, LR-CPCM, MBIS, meta-GGA TD-DFT gradient, ML-optimized integration grids, 
  MM, NACMEs, nearIR, NEB, NEB-TS, NL-DFT gradient (VV10), 2- and 3-layer-ONIOM, interface openCOSMO-RS, QMMM,   
  Crystal-QMMM, SF, symmetry and pop. for TD-DFT, r2SCAN hybrids, SOLVATOR                                   
                                                                         
[Other institutions]                                                     
  V. Asgeirsson          : NEB                                           
  Christoph Bannwarth    : sTDA-DFT, sTD-DFT, PBEh-3c, B97-3c, D3        
  Sebastian Ehlert       : rSCAN, r2SCAN, r2SCAN-3c, D4, dhf basis sets  
  Marvin Friede          : D4 for Fr, Ra, Ac-Lr                          
  Lars Goerigk           : TD-DFT with DH, B97 family of functionals     
  Stefan Grimme          : VdW corrections, initial TS optimization, DFT functionals, gCP, sTDA/sTD-DF 
  Waldemar Hujo          : DFT-NL                                        
  H. Jonsson             : NEB                                           
  Holger Kruse           : gCP                                           
  Marcel Mueller         : wB97X-3c, vDZP basis set                      
  Hagen Neugebauer       : wr2SCAN                                       
  Tobias Risthaus        : range-separated hybrid DFT                    
  Lukas Wittmann         : regularized MP2, r2SCAN double-hybrids, wr2SCAN        
                                                                         
We gratefully acknowledge several colleagues who have allowed us to      
interface, adapt or use parts of their codes:                            
  Ed Valeev, F. Pavosevic, A. Kumar             : LibInt (2-el integral package), F12 methods 
  Garnet Chan, S. Sharma, J. Yang, R. Olivares  : DMRG                   
  Ulf Ekstrom                                   : XCFun DFT Library      
  Mihaly Kallay                                 : mrcc  (arbitrary order and MRCC methods)
  Frank Weinhold                                : gennbo (NPA and NBO analysis)           
  Simon Mueller                                 : openCOSMO-RS                            
  Christopher J. Cramer and Donald G. Truhlar   : smd solvation model                     
  S Lehtola, MJT Oliveira, MAL Marques          : LibXC Library                           
  Liviu Ungur et al                             : ANISO software                          


 Your calculation uses the libint2 library for the computation of 2-el integrals
 For citations please refer to: http://libint.valeyev.net

 Your ORCA version has been built with support for libXC version: 6.2.2
 For citations please refer to: https://libxc.gitlab.io

 This ORCA versions uses:
   CBLAS   interface :  Fast vector & matrix operations
   LAPACKE interface :  Fast linear algebra routines
   SCALAPACK package :  Parallel linear algebra routines
   Shared memory     :  Shared parallel matrices
   BLAS/LAPACK       :  OpenBLAS 0.3.27  USE64BITINT DYNAMIC_ARCH NO_AFFINITY SkylakeX SINGLE_THREADED
        Core in use  :  SkylakeX
   Copyright (c) 2011-2014, The OpenBLAS Project


NOTE: MaxCore=2000 MB was set to SCF,MP2,MDCI,CIPSI,MRCI and CIS
      => If you want to overwrite this, your respective input block should be placed after the MaxCore statement
Warning: RI is on but no J-basis has been assigned. Assigning Def2/J (nothing to worry about!)
================================================================================

----- Orbital basis set information -----
Your calculation utilizes the basis: def2-SVP
   F. Weigend and R. Ahlrichs, Phys. Chem. Chem. Phys. 7, 3297 (2005).

----- AuxJ basis set information -----
Your calculation utilizes the auxiliary basis: def2/J
   F. Weigend, Phys. Chem. Chem. Phys. 8, 1057 (2006).

================================================================================
                                        WARNINGS
                       Please study these warnings very carefully!
================================================================================

WARNING: Gradients needed for Numerical Frequencies
  ===> : Setting RunTyp to EnGrad

================================================================================
                                       INPUT FILE
================================================================================
NAME = co2_polar.inp
|  1> ! B3LYP def2-SVP TightSCF NumFreq
|  2> %maxcore 2000
|  3> %output
|  4>   PrintLevel 5
|  5> end
|  6> * xyz 0 1
|  7> C    0.000000    0.000000    0.000000
|  8> O    1.200000    0.000000    0.000000
|  9> O   -1.200000    0.000000    0.000000
| 10> *
| 11> 
| 12> 
| 13>                          ****END OF INPUT****
================================================================================

                     *******************************
                     * Energy+Gradient Calculation *
                     *******************************

---------------------------------
CARTESIAN COORDINATES (ANGSTROEM)
---------------------------------
  C      0.000000    0.000000    0.000000
  O      1.200000    0.000000    0.000000
  O     -1.200000    0.000000    0.000000

----------------------------
CARTESIAN COORDINATES (A.U.)
----------------------------
  NO LB      ZA    FRAG     MASS         X           Y           Z
   0 C     6.0000    0    12.011    0.000000    0.000000    0.000000
   1 O     8.0000    0    15.999    2.267671    0.000000    0.000000
   2 O     8.0000    0    15.999   -2.267671    0.000000    0.000000

--------------------------------
INTERNAL COORDINATES (ANGSTROEM)
--------------------------------
 C      0   0   0     0.000000000000     0.00000000     0.00000000
 O      1   0   0     1.200000000000     0.00000000     0.00000000
 O      1   2   0     1.200000000000   180.00000000     0.00000000

---------------------------
INTERNAL COORDINATES (A.U.)
---------------------------
 C      0   0   0     0.000000000000     0.00000000     0.00000000
 O      1   0   0     2.267671360706     0.00000000     0.00000000
 O      1   2   0     2.267671360706   180.00000000     0.00000000

---------------------
BASIS SET INFORMATION
---------------------
There are 2 groups of distinct atoms

 Group   1 Type C   : 7s4p1d contracted to 3s2p1d pattern {511/31/1}
 Group   2 Type O   : 7s4p1d contracted to 3s2p1d pattern {511/31/1}

Atom   0C    basis set group =>   1
Atom   1O    basis set group =>   2
Atom   2O    basis set group =>   2

-------------------------
BASIS SET IN INPUT FORMAT
-------------------------

 # Basis set for element : C 
 NewGTO C 
 S 5 
   1    1238.4016938000      0.0055173650
   2     186.2900499200      0.0410888285
   3      42.2511763460      0.1822538213
   4      11.6765579320      0.4682845944
   5       3.5930506482      0.4457581734
 S 1 
   1       0.4024514736      1.0000000000
 S 1 
   1       0.1309018267      1.0000000000
 P 3 
   1       9.4680970621      0.0568883320
   2       2.0103545142      0.3129405934
   3       0.5477100471      0.7606501651
 P 1 
   1       0.1526861379      1.0000000000
 D 1 
   1       0.8000000000      1.0000000000
  end;

 # Basis set for element : O 
 NewGTO O 
 S 5 
   1    2266.1767785000     -0.0053893504
   2     340.8701019100     -0.0402347214
   3      77.3631351670     -0.1800818421
   4      21.4796449400     -0.4682885766
   5       6.6589433124     -0.4469261716
 S 1 
   1       0.8097597567      1.0000000000
 S 1 
   1       0.2553077223      1.0000000000
 P 3 
   1      17.7215043170      0.0626302488
   2       3.8635505440      0.3333113849
   3       1.0480920883      0.7414863830
 P 1 
   1       0.2764154441      1.0000000000
 D 1 
   1       1.2000000000      1.0000000000
  end;

---------------------------------
AUXILIARY/J BASIS SET INFORMATION
---------------------------------
There are 2 groups of distinct atoms

 Group   1 Type C   : 12s5p4d2f1g contracted to 6s4p3d1f1g pattern {711111/2111/211/2/1}
 Group   2 Type O   : 12s5p4d2f1g contracted to 6s4p3d1f1g pattern {711111/2111/211/2/1}

Atom   0C    basis set group =>   1
Atom   1O    basis set group =>   2
Atom   2O    basis set group =>   2

-------------------------------------
AUXILIARY/J BASIS SET IN INPUT FORMAT
-------------------------------------

 # Auxiliary/J basis set for element : C 
 NewAuxJGTO C 
 S 7 
   1    1861.0916331000      0.0134602335
   2     642.9939764000      0.0299160374
   3     235.1105725000      0.1008649584
   4      90.7028894000      0.2370970548
   5      36.7794552000      0.3924037254
   6      15.6046273000      0.3195862154
   7       6.8907294000      0.0530104441
 S 1 
   1       3.1478850000     -1.0000000000
 S 1 
   1       1.4777287000      1.0000000000
 S 1 
   1       0.7076466000      1.0000000000
 S 1 
   1       0.3430122000      1.0000000000
 S 1 
   1       0.1669453000      1.0000000000
 P 2 
   1      13.5472892000     -0.6769313712
   2       5.4669419000     -0.3779500978
 P 1 
   1       2.1751721000      1.0000000000
 P 1 
   1       0.8582194000      1.0000000000
 P 1 
   1       0.3376720000      1.0000000000
 D 2 
   1       5.9287253000     -0.3533329857
   2       1.9809209000     -0.7456525731
 D 1 
   1       0.8055417000     -1.0000000000
 D 1 
   1       0.3531244000     -1.0000000000
 F 2 
   1       1.6755626000      0.6311076882
   2       0.5997536000      0.4968166032
 G 1 
   1       1.0024600000     -1.0000000000
  end;

 # Auxiliary/J basis set for element : O 
 NewAuxJGTO O 
 S 7 
   1    2876.8216605000      0.0168151159
   2    1004.7443032000      0.0340137548
   3     369.7579954000      0.1194951309
   4     142.9442404000      0.2664627624
   5      57.8366425000      0.4202764046
   6      24.3864983000      0.2765077335
   7      10.6622662000      0.0057008815
 S 1 
   1       4.8070437000     -1.0000000000
 S 1 
   1       2.2210770000      1.0000000000
 S 1 
   1       1.0447795000      1.0000000000
 S 1 
   1       0.4968425000      1.0000000000
 S 1 
   1       0.2371384000      1.0000000000
 P 2 
   1      64.2613382000     -0.2731534179
   2      16.3006076000     -0.8168011598
 P 1 
   1       4.3550542000      1.0000000000
 P 1 
   1       1.2019554000      1.0000000000
 P 1 
   1       0.3354196000      1.0000000000
 D 2 
   1       9.2146611000     -0.4661230638
   2       2.8435251000     -0.6600908911
 D 1 
   1       0.9955759000     -1.0000000000
 D 1 
   1       0.3649441000     -1.0000000000
 F 2 
   1       2.6420115000      0.5931563945
   2       0.7345613000      0.5931563945
 G 1 
   1       1.3931000000     -1.0000000000
  end;

------------------------------------------------------------------------------
                             ORCA STARTUP CALCULATIONS
                           -- RI-GTO INTEGRALS CHOSEN --
------------------------------------------------------------------------------
------------------------------------------------------------------------------
                   ___                                                        
                  /   \      - P O W E R E D   B Y -                         
                 /     \                                                     
                 |  |  |   _    _      __       _____    __    __             
                 |  |  |  | |  | |    /  \     |  _  \  |  |  /  |          
                  \  \/   | |  | |   /    \    | | | |  |  | /  /          
                 / \  \   | |__| |  /  /\  \   | |_| |  |  |/  /          
                |  |  |   |  __  | /  /__\  \  |    /   |      \           
                |  |  |   | |  | | |   __   |  |    \   |  |\   \          
                \     /   | |  | | |  |  |  |  | |\  \  |  | \   \       
                 \___/    |_|  |_| |__|  |__|  |_| \__\ |__|  \__/        
                                                                              
                      - O R C A' S   B I G   F R I E N D -                    
                                      &                                       
                       - I N T E G R A L  F E E D E R -                       
                                                                              
 v1 FN, 2020, v2 2021, v3 2022-2024                                           
------------------------------------------------------------------------------


----------------------
SHARK INTEGRAL PACKAGE
----------------------

Number of atoms                             ...      3
Number of basis functions                   ...     42
Number of shells                            ...     18
Maximum angular momentum                    ...      2
Integral batch strategy                     ... SHARK/LIBINT Hybrid
RI-J (if used) integral strategy            ... SPLIT-RIJ (Revised 2003 algorithm where possible)
Printlevel                                  ...      1
Contraction scheme used                     ... SEGMENTED contraction
Prescreening option                         ... SCHWARTZ
   Thresh                                   ... 2.500e-11
   Tcut                                     ... 2.500e-12
   Tpresel                                  ... 2.500e-12 
Coulomb Range Separation                    ... NOT USED
Exchange Range Separation                   ... NOT USED
Multipole approximations                    ... NOT USED
Finite Nucleus Model                        ... NOT USED
CABS basis                                  ... NOT available
Auxiliary Coulomb fitting basis             ... AVAILABLE
   # of basis functions in Aux-J            ...    147
   # of shells in Aux-J                     ...     45
   Maximum angular momentum in Aux-J        ...      4
Auxiliary J/K fitting basis                 ... NOT available
Auxiliary Correlation fitting basis         ... NOT available
Auxiliary 'external' fitting basis          ... NOT available

Checking pre-screening integrals            ... done (  0.0 sec) Dimension = 18
Check shell pair data                       ... done (  0.0 sec)
Shell pair information
Shell pair cut-off parameter TPreSel        ...   2.5e-12
Total number of shell pairs                 ...       171
Shell pairs after pre-screening             ...       170
Total number of primitive shell pairs       ...       705
Primitive shell pairs kept                  ...       602
          la=0 lb=0:     44 shell pairs
          la=1 lb=0:     54 shell pairs
          la=1 lb=1:     21 shell pairs
          la=2 lb=0:     27 shell pairs
          la=2 lb=1:     18 shell pairs
          la=2 lb=2:      6 shell pairs

Calculating one electron integrals          ... done (  0.0 sec)
Calculating RI/J V-Matrix + Cholesky decomp.... done (  0.0 sec)
Calculating Nuclear repulsion               ... done (  0.0 sec) ENN=     56.445568885333 Eh

Diagonalization of the overlap matrix:
Smallest eigenvalue                        ... 9.363e-03
Time for diagonalization                   ...    0.000 sec
Threshold for overlap eigenvalues          ... 1.000e-07
Number of eigenvalues below threshold      ... 0
Time for construction of square roots      ...    0.000 sec
Total time needed                          ...    0.001 sec

-------------------
DFT GRID GENERATION
-------------------

General Integration Accuracy     IntAcc      ... 4.388
Radial Grid Type                 RadialGrid  ... OptM3 with GC (2021)
Angular Grid (max. ang.)         AngularGrid ... 4 (Lebedev-302)
Angular grid pruning method      GridPruning ... 4 (adaptive)
Weight generation scheme         WeightScheme... mBecke (2022)
Basis function cutoff            BFCut       ... 1.0000e-11
Integration weight cutoff        WCut        ... 1.0000e-14
Partially contracted basis set               ... off
Rotationally invariant grid construction     ... off
Angular grids for H and He will be reduced by one unit

Total number of grid points                  ...    18362
Total number of batches                      ...      289
Average number of points per batch           ...       63
Average number of grid points per atom       ...     6121

--------------------
COSX GRID GENERATION
--------------------

GRIDX 1
-------
General Integration Accuracy     IntAcc      ... 3.816
Radial Grid Type                 RadialGrid  ... OptM3 with GC (2021)
Angular Grid (max. ang.)         AngularGrid ... 1 (Lebedev-50)
Angular grid pruning method      GridPruning ... 4 (adaptive)
Weight generation scheme         WeightScheme... mBecke (2022)
Basis function cutoff            BFCut       ... 1.0000e-11
Integration weight cutoff        WCut        ... 1.0000e-14
Partially contracted basis set               ... on
Rotationally invariant grid construction     ... off
Angular grids for H and He will be reduced by one unit

Total number of grid points                  ...     2292
Total number of batches                      ...       20
Average number of points per batch           ...      114
Average number of grid points per atom       ...      764
UseSFitting                                  ... on

GRIDX 2
-------
General Integration Accuracy     IntAcc      ... 4.020
Radial Grid Type                 RadialGrid  ... OptM3 with GC (2021)
Angular Grid (max. ang.)         AngularGrid ... 2 (Lebedev-110)
Angular grid pruning method      GridPruning ... 4 (adaptive)
Weight generation scheme         WeightScheme... mBecke (2022)
Basis function cutoff            BFCut       ... 1.0000e-11
Integration weight cutoff        WCut        ... 1.0000e-14
Partially contracted basis set               ... on
Rotationally invariant grid construction     ... off
Angular grids for H and He will be reduced by one unit

Total number of grid points                  ...     5632
Total number of batches                      ...       45
Average number of points per batch           ...      125
Average number of grid points per atom       ...     1877
UseSFitting                                  ... on

GRIDX 3
-------
General Integration Accuracy     IntAcc      ... 4.338
Radial Grid Type                 RadialGrid  ... OptM3 with GC (2021)
Angular Grid (max. ang.)         AngularGrid ... 3 (Lebedev-194)
Angular grid pruning method      GridPruning ... 4 (adaptive)
Weight generation scheme         WeightScheme... mBecke (2022)
Basis function cutoff            BFCut       ... 1.0000e-11
Integration weight cutoff        WCut        ... 1.0000e-14
Partially contracted basis set               ... on
Rotationally invariant grid construction     ... off
Angular grids for H and He will be reduced by one unit

Total number of grid points                  ...    12570
Total number of batches                      ...       99
Average number of points per batch           ...      126
Average number of grid points per atom       ...     4190
UseSFitting                                  ... on
Initializing property integral containers    ... done (  0.0 sec)

SHARK setup successfully completed in   0.1 seconds

Maximum memory used throughout the entire STARTUP-calculation: 9.4 MB
-------------------------------------------------------------------------------
                                 ORCA GUESS
                   Start orbitals & Density for SCF / CASSCF
-------------------------------------------------------------------------------

------------
SCF SETTINGS
------------
Hamiltonian:
 Density Functional     Method          .... DFT(GTOs)
 Exchange Functional    Exchange        .... B88
   X-Alpha parameter    XAlpha          ....  0.666667
   Becke's b parameter  XBeta           ....  0.004200
 Correlation Functional Correlation     .... LYP
 LDA part of GGA corr.  LDAOpt          .... VWN-5
 Gradients option       PostSCFGGA      .... off
 Hybrid DFT is turned on
   Fraction HF Exchange ScalHFX         ....  0.200000
   Scaling of DF-GGA-X  ScalDFX         ....  0.720000
   Scaling of DF-GGA-C  ScalDFC         ....  0.810000
   Scaling of DF-LDA-C  ScalLDAC        ....  1.000000
   Perturbative correction              ....  0.000000
   NL short-range parameter             ....  4.800000
 RI-approximation to the Coulomb term is turned on
   Number of AuxJ basis functions       .... 147
   RIJ-COSX (HFX calculated with COS-X)).... on


General Settings:
 Integral files         IntName         .... co2_polar
 Hartree-Fock type      HFTyp           .... RHF
 Total Charge           Charge          ....    0
 Multiplicity           Mult            ....    1
 Number of Electrons    NEL             ....   22
 Basis Dimension        Dim             ....   42
 Nuclear Repulsion      ENuc            ....     56.4455688853 Eh

Convergence Acceleration:
 AO-DIIS                CNVDIIS         .... on
   Start iteration      DIISMaxIt       ....    12
   Startup error        DIISStart       ....  0.200000
   # of expansion vecs  DIISMaxEq       ....     5
   Bias factor          DIISBfac        ....   1.050
   Max. coefficient     DIISMaxC        ....  10.000
 MO-DIIS                CNVKDIIS        .... off
 Trust-Rad. Augm. Hess. CNVTRAH         .... auto
   Auto Start mean grad. ratio tolernc. ....  1.125000
   Auto Start start iteration           ....    50
   Auto Start num. interpolation iter.  ....    10
   Max. Number of Micro iterations      ....    24
   Max. Number of Macro iterations      .... Maxiter - #DIIS iter
   Number of Davidson start vectors     ....     2
   Converg. threshold    (grad. norm)   ....   1.000e-05
   Grad. Scal. Fac. for Micro threshold ....   0.100
   Minimum threshold for Micro iter.    ....   1.000e-02
   NR start threshold (gradient norm)   ....   1.000e-04
   Initial trust radius                 ....   0.400
   Minimum AH scaling param. (alpha)    ....   1.000
   Maximum AH scaling param. (alpha)    .... 1000.000
   Quad. conv. algorithm                .... NR
   White noise on init. David. guess    .... on
   Maximum white noise                  ....   0.010
   Pseudo random numbers                .... off
   Inactive MOs                         .... canonical
   Orbital update algorithm             .... Taylor
   Preconditioner                       .... Diag
   Full preconditioner red. dimension   ....   250
 SOSCF                  CNVSOSCF        .... on
   Start iteration      SOSCFMaxIt      ....   150
   Startup grad/error   SOSCFStart      ....  0.003300
   Hessian update       SOSCFHessUp     .... L-BFGS
 Level Shifting         CNVShift        .... on
   Level shift para.    LevelShift      ....    0.2500
   Turn off err/grad.   ShiftErr        ....    0.0010
 Zerner damping         CNVZerner       .... off
 Static damping         CNVDamp         .... on
   Fraction old density DampFac         ....    0.7000
   Max. Damping (<1)    DampMax         ....    0.9800
   Min. Damping (>=0)   DampMin         ....    0.0000
   Turn off err/grad.   DampErr         ....    0.1000

SCF Procedure:
 Maximum # iterations   MaxIter         ....   125
 SCF integral mode      SCFMode         .... Direct
   Integral package                     .... SHARK and LIBINT hybrid scheme
 Reset frequency        DirectResetFreq ....    20
 Integral Threshold     Thresh          ....  2.500e-11 Eh
 Primitive CutOff       TCut            ....  2.500e-12 Eh

Convergence Tolerance:
 Convergence Check Mode ConvCheckMode   .... Total+1el-Energy
 Convergence forced     ConvForced      .... 0
 Energy Change          TolE            ....  1.000e-08 Eh
 1-El. energy change                    ....  1.000e-05 Eh
 Orbital Gradient       TolG            ....  1.000e-05
 Orbital Rotation angle TolX            ....  1.000e-05
 DIIS Error             TolErr          ....  5.000e-07

------------------------------
INITIAL GUESS: MODEL POTENTIAL
------------------------------
Loading Hartree-Fock densities                     ... done
Calculating cut-offs                               ... done
Initializing the effective Hamiltonian             ... done
Setting up the integral package (SHARK)            ... done
Starting the Coulomb interaction                   ... done (   0.0 sec)
Making the grid                                    ... done (   0.0 sec)
Mapping shells                                     ... done
Starting the XC term evaluation                    ... done (   0.0 sec)
  promolecular density results
     # of electrons  =     22.000167588
     EX              =    -21.472339553
     EC              =     -0.784628340
     EX+EC           =    -22.256967893
Transforming the Hamiltonian                       ... done (   0.0 sec)
Diagonalizing the Hamiltonian                      ... done (   0.0 sec)
Back transforming the eigenvectors                 ... done (   0.0 sec)
Now organizing SCF variables                       ... done
                      ------------------
                      INITIAL GUESS DONE (   0.0 sec)
                      ------------------
----------------------
INITIAL GUESS ORBITALS
----------------------
                      0         1         2         3         4         5   
                 -18.98316 -18.98307 -10.07759  -1.08183  -1.05685  -0.56199
                   2.00000   2.00000   2.00000   2.00000   2.00000   2.00000
                  --------  --------  --------  --------  --------  --------
  0C   1s         0.000000 -0.000781  0.987549 -0.177681  0.000000  0.172208
  0C   2s         0.000000 -0.000061  0.052460  0.345215 -0.000000 -0.393093
  0C   3s         0.000000 -0.010940 -0.004163  0.021166  0.000000 -0.059607
  0C   1pz        0.000000  0.000000  0.000000  0.000000  0.000000  0.000000
  0C   1px       -0.000195  0.000000 -0.000000  0.000000  0.311607 -0.000000
  0C   1py       -0.000000  0.000000  0.000000  0.000000 -0.000000 -0.000000
  0C   2pz       -0.000000  0.000000 -0.000000 -0.000000  0.000000  0.000000
  0C   2px       -0.026417 -0.000000 -0.000000 -0.000000  0.060823  0.000000
  0C   2py        0.000000 -0.000000  0.000000  0.000000  0.000000  0.000000
  0C   1dz2       0.000000 -0.002238 -0.003642 -0.020793  0.000000  0.007403
  0C   1dxz      -0.000000 -0.000000  0.000000 -0.000000 -0.000000  0.000000
  0C   1dyz       0.000000  0.000000 -0.000000  0.000000  0.000000  0.000000
  0C   1dx2y2    -0.000000  0.003876  0.006308  0.036015 -0.000000 -0.012822
  0C   1dxy       0.000000  0.000000 -0.000000 -0.000000  0.000000 -0.000000
  1O   1s         0.698788  0.698878 -0.000119  0.186781  0.200405  0.116261
  1O   2s        -0.032407 -0.030376 -0.001071  0.383184  0.422579  0.250281
  1O   3s         0.034523  0.017099 -0.010001  0.176681  0.139429  0.247395
  1O   1pz       -0.000000  0.000000 -0.000000 -0.000000  0.000000  0.000000
  1O   1px        0.001558  0.002782  0.002480 -0.126157 -0.131501  0.355089
  1O   1py        0.000000 -0.000000  0.000000  0.000000  0.000000 -0.000000
  1O   2pz        0.000000 -0.000000  0.000000  0.000000 -0.000000 -0.000000
  1O   2px       -0.006814 -0.003649  0.009016 -0.019396 -0.000518  0.165104
  1O   2py       -0.000000  0.000000 -0.000000 -0.000000 -0.000000 -0.000000
  1O   1dz2       0.000046  0.000491  0.001046 -0.005154 -0.005399  0.006843
  1O   1dxz      -0.000000  0.000000 -0.000000 -0.000000  0.000000 -0.000000
  1O   1dyz      -0.000000  0.000000  0.000000 -0.000000 -0.000000 -0.000000
  1O   1dx2y2    -0.000080 -0.000850 -0.001812  0.008927  0.009352 -0.011853
  1O   1dxy       0.000000 -0.000000  0.000000 -0.000000  0.000000  0.000000
  2O   1s        -0.698788  0.698878 -0.000119  0.186781 -0.200405  0.116261
  2O   2s         0.032407 -0.030376 -0.001071  0.383184 -0.422579  0.250281
  2O   3s        -0.034523  0.017099 -0.010001  0.176681 -0.139429  0.247395
  2O   1pz       -0.000000  0.000000 -0.000000 -0.000000  0.000000  0.000000
  2O   1px        0.001558 -0.002782 -0.002480  0.126157 -0.131501 -0.355089
  2O   1py        0.000000 -0.000000  0.000000  0.000000 -0.000000 -0.000000
  2O   2pz        0.000000 -0.000000  0.000000  0.000000 -0.000000 -0.000000
  2O   2px       -0.006814  0.003649 -0.009016  0.019396 -0.000518 -0.165104
  2O   2py       -0.000000  0.000000 -0.000000 -0.000000  0.000000 -0.000000
  2O   1dz2      -0.000046  0.000491  0.001046 -0.005154  0.005399  0.006843
  2O   1dxz       0.000000 -0.000000  0.000000  0.000000 -0.000000  0.000000
  2O   1dyz      -0.000000  0.000000  0.000000 -0.000000  0.000000 -0.000000
  2O   1dx2y2     0.000080 -0.000850 -0.001812  0.008927 -0.009352 -0.011853
  2O   1dxy      -0.000000  0.000000 -0.000000 -0.000000  0.000000 -0.000000
                      6         7         8         9        10        11   
                  -0.53023  -0.48339  -0.48339  -0.39152  -0.39152  -0.04817
                   2.00000   2.00000   2.00000   2.00000   2.00000   0.00000
                  --------  --------  --------  --------  --------  --------
  0C   1s         0.000000  0.000000  0.000000  0.000000 -0.000000  0.000000
  0C   2s        -0.000000  0.000000  0.000000 -0.000000  0.000000 -0.000000
  0C   3s        -0.000000  0.000000  0.000000  0.000000  0.000000 -0.000000
  0C   1pz        0.000000 -0.186033 -0.301068 -0.000000 -0.000000  0.489318
  0C   1px        0.337695  0.000000  0.000000 -0.000000 -0.000000 -0.000000
  0C   1py        0.000000 -0.301068  0.186033  0.000000  0.000000 -0.431288
  0C   2pz        0.000000 -0.069413 -0.112335 -0.000000  0.000000  0.412851
  0C   2px       -0.024280  0.000000  0.000000 -0.000000  0.000000 -0.000000
  0C   2py       -0.000000 -0.112335  0.069413 -0.000000 -0.000000 -0.363889
  0C   1dz2       0.000000 -0.000000 -0.000000  0.000000 -0.000000  0.000000
  0C   1dxz       0.000000 -0.000000  0.000000 -0.052867 -0.007100 -0.000000
  0C   1dyz      -0.000000 -0.000000  0.000000  0.000000  0.000000 -0.000000
  0C   1dx2y2    -0.000000 -0.000000  0.000000 -0.000000  0.000000 -0.000000
  0C   1dxy      -0.000000 -0.000000 -0.000000 -0.007100  0.052867  0.000000
  1O   1s        -0.090564  0.000000  0.000000 -0.000000 -0.000000  0.000000
  1O   2s        -0.190361  0.000000  0.000000 -0.000000  0.000000 -0.000000
  1O   3s        -0.205713 -0.000000 -0.000000  0.000000 -0.000000  0.000000
  1O   1pz        0.000000 -0.208158 -0.336873 -0.488077 -0.065547 -0.267368
  1O   1px       -0.412486 -0.000000  0.000000 -0.000000 -0.000000 -0.000000
  1O   1py        0.000000 -0.336873  0.208158 -0.065547  0.488077  0.235660
  1O   2pz        0.000000 -0.109649 -0.177451 -0.302998 -0.040691 -0.241442
  1O   2px       -0.182049  0.000000  0.000000 -0.000000  0.000000 -0.000000
  1O   2py        0.000000 -0.177451  0.109649 -0.040691  0.302998  0.212809
  1O   1dz2      -0.007061  0.000000  0.000000 -0.000000  0.000000 -0.000000
  1O   1dxz      -0.000000  0.010921  0.017675  0.012522  0.001682 -0.013967
  1O   1dyz      -0.000000  0.000000 -0.000000 -0.000000 -0.000000  0.000000
  1O   1dx2y2     0.012230 -0.000000 -0.000000  0.000000 -0.000000  0.000000
  1O   1dxy      -0.000000  0.017675 -0.010921  0.001682 -0.012522  0.012311
  2O   1s         0.090564  0.000000  0.000000  0.000000 -0.000000  0.000000
  2O   2s         0.190361  0.000000 -0.000000  0.000000 -0.000000  0.000000
  2O   3s         0.205713  0.000000  0.000000 -0.000000  0.000000  0.000000
  2O   1pz       -0.000000 -0.208158 -0.336873  0.488077  0.065547 -0.267368
  2O   1px       -0.412486 -0.000000 -0.000000 -0.000000 -0.000000  0.000000
  2O   1py        0.000000 -0.336873  0.208158  0.065547 -0.488077  0.235660
  2O   2pz       -0.000000 -0.109649 -0.177451  0.302998  0.040691 -0.241442
  2O   2px       -0.182049  0.000000  0.000000 -0.000000 -0.000000  0.000000
  2O   2py        0.000000 -0.177451  0.109649  0.040691 -0.302998  0.212809
  2O   1dz2       0.007061  0.000000  0.000000  0.000000  0.000000 -0.000000
  2O   1dxz      -0.000000 -0.010921 -0.017675  0.012522  0.001682  0.013967
  2O   1dyz      -0.000000  0.000000  0.000000 -0.000000 -0.000000 -0.000000
  2O   1dx2y2    -0.012230 -0.000000 -0.000000 -0.000000 -0.000000  0.000000
  2O   1dxy       0.000000 -0.017675  0.010921  0.001682 -0.012522 -0.012311
                     12        13        14        15        16        17   
                  -0.04817   0.00087   0.30427   0.36926   0.39622   0.39622
                   0.00000   0.00000   0.00000   0.00000   0.00000   0.00000
                  --------  --------  --------  --------  --------  --------
  0C   1s         0.000000  0.128510  0.000000 -0.332842 -0.000000 -0.000000
  0C   2s        -0.000000 -0.241045 -0.000000  1.694427  0.000000  0.000000
  0C   3s        -0.000000 -1.624580  0.000000 -1.683248 -0.000000 -0.000000
  0C   1pz        0.431288 -0.000000  0.000000  0.000000 -0.427827 -0.791798
  0C   1px       -0.000000 -0.000000 -0.039909 -0.000000 -0.000000  0.000000
  0C   1py        0.489318 -0.000000 -0.000000 -0.000000 -0.791798  0.427827
  0C   2pz        0.363889 -0.000000 -0.000000 -0.000000  0.589753  1.091481
  0C   2px       -0.000000 -0.000000 -3.468805 -0.000000  0.000000 -0.000000
  0C   2py        0.412851  0.000000  0.000000  0.000000  1.091481 -0.589753
  0C   1dz2       0.000000 -0.032791 -0.000000  0.060819  0.000000  0.000000
  0C   1dxz      -0.000000 -0.000000 -0.000000 -0.000000 -0.000000  0.000000
  0C   1dyz       0.000000 -0.000000  0.000000 -0.000000 -0.000000 -0.000000
  0C   1dx2y2    -0.000000  0.056796  0.000000 -0.105342 -0.000000 -0.000000
  0C   1dxy      -0.000000  0.000000  0.000000  0.000000 -0.000000 -0.000000
  1O   1s         0.000000  0.099376  0.093373 -0.027238 -0.000000 -0.000000
  1O   2s        -0.000000  0.244005  0.141412 -0.102615 -0.000000 -0.000000
  1O   3s         0.000000  0.588840  2.219848  0.322713  0.000000  0.000000
  1O   1pz       -0.235660  0.000000  0.000000  0.000000 -0.049409 -0.091444
  1O   1px       -0.000000 -0.292048  0.089998  0.318493  0.000000  0.000000
  1O   1py       -0.267368  0.000000  0.000000  0.000000 -0.091444  0.049409
  1O   2pz       -0.212809  0.000000  0.000000  0.000000 -0.058939 -0.109082
  1O   2px       -0.000000 -0.347844 -0.605709  0.045801  0.000000 -0.000000
  1O   2py       -0.241442 -0.000000 -0.000000 -0.000000 -0.109082  0.058939
  1O   1dz2      -0.000000 -0.002126 -0.013221 -0.028631 -0.000000 -0.000000
  1O   1dxz      -0.012311  0.000000 -0.000000 -0.000000  0.013608  0.025185
  1O   1dyz      -0.000000 -0.000000 -0.000000  0.000000 -0.000000  0.000000
  1O   1dx2y2     0.000000  0.003683  0.022900  0.049591  0.000000  0.000000
  1O   1dxy      -0.013967  0.000000  0.000000  0.000000  0.025185 -0.013608
  2O   1s         0.000000  0.099376 -0.093373 -0.027238  0.000000 -0.000000
  2O   2s         0.000000  0.244005 -0.141412 -0.102615 -0.000000 -0.000000
  2O   3s         0.000000  0.588840 -2.219848  0.322713  0.000000  0.000000
  2O   1pz       -0.235660  0.000000 -0.000000  0.000000 -0.049409 -0.091444
  2O   1px        0.000000  0.292048  0.089998 -0.318493 -0.000000 -0.000000
  2O   1py       -0.267368  0.000000 -0.000000  0.000000 -0.091444  0.049409
  2O   2pz       -0.212809  0.000000  0.000000  0.000000 -0.058939 -0.109082
  2O   2px        0.000000  0.347844 -0.605709 -0.045801  0.000000 -0.000000
  2O   2py       -0.241442 -0.000000  0.000000 -0.000000 -0.109082  0.058939
  2O   1dz2      -0.000000 -0.002126  0.013221 -0.028631 -0.000000 -0.000000
  2O   1dxz       0.012311 -0.000000  0.000000  0.000000 -0.013608 -0.025185
  2O   1dyz      -0.000000  0.000000 -0.000000  0.000000 -0.000000 -0.000000
  2O   1dx2y2     0.000000  0.003683 -0.022900  0.049591  0.000000  0.000000
  2O   1dxy       0.013967  0.000000 -0.000000 -0.000000 -0.025185  0.013608
                     18        19        20        21        22        23   
                   0.62947   0.70906   0.79190   0.79190   0.88633   0.97342
                   0.00000   0.00000   0.00000   0.00000   0.00000   0.00000
                  --------  --------  --------  --------  --------  --------
  0C   1s         0.000000 -0.082062 -0.000000  0.000000  0.000000 -0.000000
  0C   2s        -0.000000  1.110352  0.000000 -0.000000 -0.000000  0.000000
  0C   3s        -0.000000  0.305048  0.000000 -0.000000  0.000000  0.000000
  0C   1pz        0.000000 -0.000000  0.000000 -0.000000 -0.000000  0.023640
  0C   1px       -1.235735  0.000000  0.000000 -0.000000  0.353569 -0.000000
  0C   1py        0.000000  0.000000 -0.000000  0.000000  0.000000  0.058867
  0C   2pz       -0.000000 -0.000000 -0.000000 -0.000000  0.000000 -0.362052
  0C   2px        0.163418  0.000000 -0.000000  0.000000  0.675958  0.000000
  0C   2py       -0.000000  0.000000  0.000000 -0.000000 -0.000000 -0.901550
  0C   1dz2       0.000000 -0.097740 -0.000000  0.000000  0.000000 -0.000000
  0C   1dxz       0.000000  0.000000  0.085733  0.032209  0.000000 -0.000000
  0C   1dyz       0.000000  0.000000  0.000000 -0.000000 -0.000000 -0.000000
  0C   1dx2y2    -0.000000  0.169291  0.000000 -0.000000 -0.000000  0.000000
  0C   1dxy      -0.000000 -0.000000 -0.032209  0.085733 -0.000000 -0.000000
  1O   1s         0.109590 -0.106449 -0.000000 -0.000000 -0.005730  0.000000
  1O   2s         0.363997 -0.419792 -0.000000 -0.000000  0.042301  0.000000
  1O   3s         0.147140 -0.094129  0.000000  0.000000 -0.593607 -0.000000
  1O   1pz        0.000000 -0.000000  0.604152  0.226970  0.000000 -0.238994
  1O   1px       -0.136733 -0.455737 -0.000000 -0.000000  0.719023  0.000000
  1O   1py        0.000000  0.000000 -0.226970  0.604152  0.000000 -0.595121
  1O   2pz       -0.000000  0.000000 -0.754933 -0.283616 -0.000000  0.416122
  1O   2px       -0.722826  1.071509  0.000000 -0.000000 -0.627514  0.000000
  1O   2py       -0.000000 -0.000000  0.283616 -0.754933 -0.000000  1.036189
  1O   1dz2       0.042042  0.002144 -0.000000  0.000000 -0.003786  0.000000
  1O   1dxz       0.000000  0.000000 -0.010423 -0.003916 -0.000000  0.017449
  1O   1dyz      -0.000000  0.000000 -0.000000  0.000000 -0.000000  0.000000
  1O   1dx2y2    -0.072820 -0.003713  0.000000 -0.000000  0.006557 -0.000000
  1O   1dxy      -0.000000 -0.000000  0.003916 -0.010423  0.000000  0.043451
  2O   1s        -0.109590 -0.106449  0.000000  0.000000  0.005730  0.000000
  2O   2s        -0.363997 -0.419792  0.000000  0.000000 -0.042301  0.000000
  2O   3s        -0.147140 -0.094129 -0.000000  0.000000  0.593607 -0.000000
  2O   1pz       -0.000000 -0.000000 -0.604152 -0.226970  0.000000 -0.238994
  2O   1px       -0.136733  0.455737  0.000000 -0.000000  0.719023  0.000000
  2O   1py        0.000000  0.000000  0.226970 -0.604152 -0.000000 -0.595121
  2O   2pz        0.000000  0.000000  0.754933  0.283616 -0.000000  0.416122
  2O   2px       -0.722826 -1.071509 -0.000000  0.000000 -0.627514 -0.000000
  2O   2py       -0.000000 -0.000000 -0.283616  0.754933  0.000000  1.036189
  2O   1dz2      -0.042042  0.002144  0.000000 -0.000000  0.003786 -0.000000
  2O   1dxz      -0.000000 -0.000000 -0.010423 -0.003916  0.000000 -0.017449
  2O   1dyz       0.000000  0.000000  0.000000 -0.000000 -0.000000 -0.000000
  2O   1dx2y2     0.072820 -0.003713 -0.000000  0.000000 -0.006557  0.000000
  2O   1dxy       0.000000  0.000000  0.003916 -0.010423 -0.000000 -0.043451
                     24        25        26        27        28        29   
                   0.97342   1.14541   1.46631   1.46631   1.47828   1.50095
                   0.00000   0.00000   0.00000   0.00000   0.00000   0.00000
                  --------  --------  --------  --------  --------  --------
  0C   1s        -0.000000  0.080445 -0.000000  0.000000  0.000000  0.000000
  0C   2s         0.000000 -1.276617  0.000000 -0.000000 -0.000000 -0.000000
  0C   3s         0.000000 -2.497708  0.000000 -0.000000 -0.000000 -0.000000
  0C   1pz        0.058867 -0.000000 -0.000000  0.000000 -0.000000  0.000000
  0C   1px        0.000000  0.000000 -0.000000  0.000000 -0.517065 -0.000000
  0C   1py       -0.023640  0.000000  0.000000  0.000000  0.000000 -0.000000
  0C   2pz       -0.901550 -0.000000  0.000000 -0.000000  0.000000 -0.000000
  0C   2px        0.000000  0.000000 -0.000000  0.000000 -4.372517 -0.000000
  0C   2py        0.362052  0.000000 -0.000000 -0.000000 -0.000000  0.000000
  0C   1dz2      -0.000000  0.184263 -0.000000 -0.000000  0.000000  0.000000
  0C   1dxz      -0.000000 -0.000000 -0.637531 -0.537988  0.000000  0.000000
  0C   1dyz       0.000000  0.000000 -0.000000  0.000000  0.000000 -0.954124
  0C   1dx2y2     0.000000 -0.319152  0.000000 -0.000000 -0.000000  0.000000
  0C   1dxy       0.000000  0.000000  0.537988 -0.637531 -0.000000 -0.000000
  1O   1s         0.000000 -0.173238 -0.000000  0.000000 -0.222729 -0.000000
  1O   2s         0.000000 -1.263576 -0.000000  0.000000 -1.692659 -0.000000
  1O   3s        -0.000000  2.840766  0.000000 -0.000000  4.966122  0.000000
  1O   1pz       -0.595121 -0.000000  0.108255  0.091352 -0.000000 -0.000000
  1O   1px        0.000000  0.029740  0.000000 -0.000000  0.105522  0.000000
  1O   1py        0.238994  0.000000 -0.091352  0.108255  0.000000  0.000000
  1O   2pz        1.036189  0.000000  0.111382  0.093991 -0.000000  0.000000
  1O   2px        0.000000 -1.207101 -0.000000  0.000000 -1.258933 -0.000000
  1O   2py       -0.416122 -0.000000 -0.093991  0.111382  0.000000 -0.000000
  1O   1dz2       0.000000  0.016580  0.000000 -0.000000  0.046806  0.000000
  1O   1dxz       0.043451  0.000000  0.194230  0.163903 -0.000000 -0.000000
  1O   1dyz       0.000000  0.000000 -0.000000  0.000000  0.000000 -0.149429
  1O   1dx2y2    -0.000000 -0.028718 -0.000000  0.000000 -0.081070  0.000000
  1O   1dxy      -0.017449 -0.000000 -0.163903  0.194230  0.000000  0.000000
  2O   1s         0.000000 -0.173238  0.000000 -0.000000  0.222729  0.000000
  2O   2s         0.000000 -1.263576  0.000000 -0.000000  1.692659  0.000000
  2O   3s        -0.000000  2.840766 -0.000000  0.000000 -4.966122 -0.000000
  2O   1pz       -0.595121 -0.000000 -0.108255 -0.091352  0.000000 -0.000000
  2O   1px        0.000000 -0.029740  0.000000 -0.000000  0.105522  0.000000
  2O   1py        0.238994  0.000000  0.091352 -0.108255 -0.000000  0.000000
  2O   2pz        1.036189  0.000000 -0.111382 -0.093991  0.000000  0.000000
  2O   2px       -0.000000  1.207101 -0.000000  0.000000 -1.258933 -0.000000
  2O   2py       -0.416122 -0.000000  0.093991 -0.111382 -0.000000 -0.000000
  2O   1dz2       0.000000  0.016580 -0.000000  0.000000 -0.046806  0.000000
  2O   1dxz      -0.043451 -0.000000  0.194230  0.163903 -0.000000 -0.000000
  2O   1dyz       0.000000  0.000000 -0.000000  0.000000  0.000000 -0.149429
  2O   1dx2y2    -0.000000 -0.028718  0.000000 -0.000000  0.081070  0.000000
  2O   1dxy       0.017449  0.000000 -0.163903  0.194230  0.000000  0.000000
                     30        31        32        33        34        35   
                   1.50099   2.39790   2.39831   2.49849   2.49889   2.56082
                   0.00000   0.00000   0.00000   0.00000   0.00000   0.00000
                  --------  --------  --------  --------  --------  --------
  0C   1s        -0.000000  0.000000 -0.000000 -0.000000 -0.000000 -0.014563
  0C   2s         0.000000 -0.000000 -0.000000 -0.000000 -0.000000 -0.584164
  0C   3s         0.000000  0.000000  0.000000 -0.000000  0.000000 -0.253208
  0C   1pz        0.000000 -0.000000 -0.000000 -0.000000  0.000000  0.000000
  0C   1px        0.000000  0.000000 -0.000000  0.000000 -0.000000  0.000000
  0C   1py       -0.000000  0.000000 -0.000000  0.000000  0.000000 -0.000000
  0C   2pz       -0.000000  0.000000  0.000000  0.000000 -0.000000  0.000000
  0C   2px        0.000000  0.000000 -0.000000  0.000000 -0.000000 -0.000000
  0C   2py        0.000000 -0.000000  0.000000 -0.000000  0.000000 -0.000000
  0C   1dz2       0.826321 -0.000000 -0.000000 -0.000000  0.276849 -0.491127
  0C   1dxz      -0.000000  0.000000  0.000000  0.000000 -0.000000 -0.000000
  0C   1dyz       0.000000 -0.000000  0.000000  0.319764 -0.000000 -0.000000
  0C   1dx2y2     0.477077  0.000000  0.000000  0.000000  0.159839  0.850658
  0C   1dxy      -0.000000  0.000000  0.000000 -0.000000 -0.000000  0.000000
  1O   1s         0.000000 -0.000000 -0.000000  0.000000 -0.000000 -0.118701
  1O   2s         0.000000  0.000000 -0.000000  0.000000 -0.000000 -0.767408
  1O   3s        -0.000000 -0.000000  0.000000 -0.000000  0.000000  0.731391
  1O   1pz       -0.000000  0.000000 -0.000000  0.000000  0.000000  0.000000
  1O   1px       -0.000000  0.000000  0.000000  0.000000  0.000000  0.513193
  1O   1py        0.000000  0.000000  0.000000  0.000000  0.000000 -0.000000
  1O   2pz        0.000000 -0.000000 -0.000000 -0.000000 -0.000000 -0.000000
  1O   2px        0.000000  0.000000 -0.000000  0.000000 -0.000000 -0.530917
  1O   2py        0.000000  0.000000 -0.000000 -0.000000 -0.000000  0.000000
  1O   1dz2       0.129355 -0.000000  0.612374 -0.000000 -0.602488 -0.141070
  1O   1dxz       0.000000 -0.000000  0.000000  0.000000  0.000000  0.000000
  1O   1dyz       0.000000 -0.707108 -0.000000 -0.695680  0.000000  0.000000
  1O   1dx2y2     0.074683 -0.000000  0.353554  0.000000 -0.347847  0.244341
  1O   1dxy       0.000000  0.000000  0.000000  0.000000  0.000000 -0.000000
  2O   1s        -0.000000  0.000000  0.000000 -0.000000 -0.000000 -0.118701
  2O   2s        -0.000000  0.000000  0.000000 -0.000000 -0.000000 -0.767408
  2O   3s         0.000000 -0.000000 -0.000000  0.000000  0.000000  0.731391
  2O   1pz       -0.000000  0.000000  0.000000  0.000000 -0.000000  0.000000
  2O   1px       -0.000000 -0.000000 -0.000000 -0.000000 -0.000000 -0.513193
  2O   1py       -0.000000 -0.000000 -0.000000  0.000000  0.000000 -0.000000
  2O   2pz        0.000000 -0.000000 -0.000000 -0.000000  0.000000 -0.000000
  2O   2px        0.000000 -0.000000 -0.000000  0.000000  0.000000  0.530917
  2O   2py       -0.000000  0.000000 -0.000000 -0.000000 -0.000000  0.000000
  2O   1dz2       0.129355  0.000000 -0.612374 -0.000000 -0.602488 -0.141070
  2O   1dxz       0.000000  0.000000  0.000000 -0.000000 -0.000000 -0.000000
  2O   1dyz       0.000000  0.707108  0.000000 -0.695680  0.000000  0.000000
  2O   1dx2y2     0.074683  0.000000 -0.353554 -0.000000 -0.347847  0.244341
  2O   1dxy       0.000000 -0.000000 -0.000000 -0.000000 -0.000000  0.000000
                     36        37        38        39        40        41   
                   2.56955   2.56955   3.28599   3.30076   3.30076   3.64057
                   0.00000   0.00000   0.00000   0.00000   0.00000   0.00000
                  --------  --------  --------  --------  --------  --------
  0C   1s         0.000000  0.000000 -0.000000 -0.000000  0.000000  0.274051
  0C   2s         0.000000  0.000000  0.000000  0.000000 -0.000000 -1.996054
  0C   3s         0.000000  0.000000 -0.000000 -0.000000  0.000000 -0.993689
  0C   1pz        0.205459  0.204898 -0.000000  0.000000 -0.000000 -0.000000
  0C   1px       -0.000000 -0.000000 -1.203312 -0.000000  0.000000 -0.000000
  0C   1py       -0.204898  0.205459  0.000000 -0.000000  0.000000  0.000000
  0C   2pz        0.142557  0.142167  0.000000 -0.000000  0.000000 -0.000000
  0C   2px        0.000000 -0.000000 -1.108182 -0.000000  0.000000  0.000000
  0C   2py       -0.142167  0.142557 -0.000000  0.000000  0.000000  0.000000
  0C   1dz2       0.000000  0.000000 -0.000000 -0.000000  0.000000  0.672564
  0C   1dxz      -0.000000 -0.000000 -0.000000  0.725535  0.537299  0.000000
  0C   1dyz       0.000000 -0.000000 -0.000000 -0.000000  0.000000 -0.000000
  0C   1dx2y2    -0.000000 -0.000000  0.000000  0.000000 -0.000000 -1.164915
  0C   1dxy       0.000000 -0.000000  0.000000 -0.537299  0.725535 -0.000000
  1O   1s         0.000000  0.000000 -0.026471 -0.000000  0.000000  0.058447
  1O   2s         0.000000  0.000000 -0.403966 -0.000000  0.000000  0.109015
  1O   3s        -0.000000 -0.000000  1.705740  0.000000 -0.000000  1.324646
  1O   1pz        0.057747  0.057589  0.000000 -0.048961 -0.036259 -0.000000
  1O   1px       -0.000000 -0.000000 -0.051795  0.000000  0.000000 -0.456853
  1O   1py       -0.057589  0.057747 -0.000000  0.036259 -0.048961  0.000000
  1O   2pz       -0.161862 -0.161420  0.000000 -0.175610 -0.130049  0.000000
  1O   2px        0.000000  0.000000 -0.823660 -0.000000  0.000000 -0.852486
  1O   2py        0.161420 -0.161862 -0.000000  0.130049 -0.175610 -0.000000
  1O   1dz2       0.000000  0.000000 -0.412848 -0.000000  0.000000 -0.465744
  1O   1dxz       0.517129  0.515715 -0.000000  0.614336  0.454950 -0.000000
  1O   1dyz      -0.000000  0.000000  0.000000  0.000000  0.000000  0.000000
  1O   1dx2y2    -0.000000 -0.000000  0.715074  0.000000 -0.000000  0.806692
  1O   1dxy      -0.515715  0.517129  0.000000 -0.454950  0.614336 -0.000000
  2O   1s         0.000000  0.000000  0.026471  0.000000 -0.000000  0.058447
  2O   2s         0.000000  0.000000  0.403966  0.000000 -0.000000  0.109015
  2O   3s        -0.000000 -0.000000 -1.705740 -0.000000  0.000000  1.324646
  2O   1pz        0.057747  0.057589 -0.000000  0.048961  0.036259 -0.000000
  2O   1px        0.000000  0.000000 -0.051795 -0.000000  0.000000  0.456853
  2O   1py       -0.057589  0.057747  0.000000 -0.036259  0.048961  0.000000
  2O   2pz       -0.161862 -0.161420 -0.000000  0.175610  0.130049  0.000000
  2O   2px       -0.000000 -0.000000 -0.823660 -0.000000  0.000000  0.852486
  2O   2py        0.161420 -0.161862  0.000000 -0.130049  0.175610 -0.000000
  2O   1dz2       0.000000  0.000000  0.412848  0.000000 -0.000000 -0.465744
  2O   1dxz      -0.517129 -0.515715 -0.000000  0.614336  0.454950  0.000000
  2O   1dyz      -0.000000  0.000000  0.000000  0.000000 -0.000000  0.000000
  2O   1dx2y2    -0.000000 -0.000000 -0.715074 -0.000000  0.000000  0.806692
  2O   1dxy       0.515715 -0.517129  0.000000 -0.454950  0.614336 -0.000000
             **** ENERGY FILE WAS UPDATED (co2_polar.en.tmp) ****
Finished Guess after   0.1 sec
Maximum memory used throughout the entire GUESS-calculation: 5.8 MB

-------------------------------------------------------------------------------------------
                                      ORCA LEAN-SCF
                              memory conserving SCF solver
-------------------------------------------------------------------------------------------

----------------------------------------D-I-I-S--------------------------------------------
Iteration    Energy (Eh)           Delta-E    RMSDP     MaxDP     DIISErr   Damp  Time(sec)
-------------------------------------------------------------------------------------------
               ***  Starting incremental Fock matrix formation  ***
    1    -188.2334067522083956     0.00e+00  9.25e-03  9.95e-02  2.12e-01  0.700   0.1

                         ----------------------------
                         !        ITERATION     0   !
                         ----------------------------
   Total Energy        :    -188.233406752208 Eh
   Energy Change       :     188.233406752208 Eh
   MAX-DP              :       0.099490572847
   RMS-DP              :       0.009245107254
   Actual Damping      :       0.7000
   Actual Level Shift  :       0.2500 Eh
   alpha HOMO          :      -0.2648 Eh
   alpha LUMO          :       0.2683 Eh
   Int. Num. El.       :    21.99999669 (UP=   10.99999834 DN=   10.99999834)
   Exchange            :   -17.43096542 Eh
   Correlation         :    -0.93405007 Eh
   DIIS-Error          :       0.211663525924

    2    -188.2972585465064412    -6.39e-02  4.43e-03  3.74e-02  7.56e-02  0.700   0.1

                         ----------------------------
                         !        ITERATION     1   !
                         ----------------------------
   Total Energy        :    -188.297258546506 Eh
   Energy Change       :       0.063851794298 Eh
   MAX-DP              :       0.037355183841
   RMS-DP              :       0.004432020688
   Actual Damping      :       0.7000
   Actual Level Shift  :       0.2500 Eh
   alpha HOMO          :      -0.3288 Eh
   alpha LUMO          :       0.2683 Eh
   Int. Num. El.       :    21.99999627 (UP=   10.99999813 DN=   10.99999813)
   Exchange            :   -17.26422577 Eh
   Correlation         :    -0.92983058 Eh
   DIIS-Error          :       0.075639151028

                               ***Turning on AO-DIIS***
    3    -188.3137392611793075    -1.65e-02  1.04e-03  8.61e-03  1.38e-02  0.700   0.1

                         ----------------------------
                         !        ITERATION     2   !
                         ----------------------------
   Total Energy        :    -188.313739261179 Eh
   Energy Change       :       0.016480714673 Eh
   MAX-DP              :       0.008613021211
   RMS-DP              :       0.001036690860
   Actual Damping      :       0.7000
   Actual Level Shift  :       0.2500 Eh
   alpha HOMO          :      -0.3642 Eh
   alpha LUMO          :       0.2638 Eh
   Int. Num. El.       :    21.99999587 (UP=   10.99999793 DN=   10.99999793)
   Exchange            :   -17.18181071 Eh
   Correlation         :    -0.92762653 Eh
   DIIS-Error          :       0.013832627908
   DIIS coefficients:
     -0.00191  -0.05072   1.05263

    4    -188.3256650359558080    -1.19e-02  1.74e-03  2.55e-02  1.38e-02  0.000   0.1

                         ----------------------------
                         !        ITERATION     3   !
                         ----------------------------
   Total Energy        :    -188.325665035956 Eh
   Energy Change       :       0.011925774777 Eh
   MAX-DP              :       0.025467894718
   RMS-DP              :       0.001744905888
   Actual Damping      :       0.0000
   Actual Level Shift  :       0.2500 Eh
   alpha HOMO          :      -0.3678 Eh
   alpha LUMO          :       0.2608 Eh
   Int. Num. El.       :    21.99999568 (UP=   10.99999784 DN=   10.99999784)
   Exchange            :   -17.16332062 Eh
   Correlation         :    -0.92705693 Eh
   DIIS-Error          :       0.013807010042
   DIIS coefficients:
      0.04344   0.10477  -0.96982   1.82160

    5    -188.3551359264257599    -2.95e-02  5.03e-04  3.75e-03  7.05e-03  0.000   0.1

                         ----------------------------
                         !        ITERATION     4   !
                         ----------------------------
   Total Energy        :    -188.355135926426 Eh
   Energy Change       :       0.029470890470 Eh
   MAX-DP              :       0.003752217751
   RMS-DP              :       0.000503490078
   Actual Damping      :       0.0000
   Actual Level Shift  :       0.2500 Eh
   alpha HOMO          :      -0.3697 Eh
   alpha LUMO          :       0.2580 Eh
   Int. Num. El.       :    21.99999546 (UP=   10.99999773 DN=   10.99999773)
   Exchange            :   -17.15277011 Eh
   Correlation         :    -0.92657527 Eh
   DIIS-Error          :       0.007052213974
   DIIS coefficients:
      0.00434   0.02714   0.21434  -0.16086   0.91504

                              *** Initializing SOSCF ***
---------------------------------------S-O-S-C-F--------------------------------------
Iteration    Energy (Eh)           Delta-E    RMSDP     MaxDP     MaxGrad    Time(sec)
--------------------------------------------------------------------------------------
    6    -188.3552802944184350    -1.44e-04  1.24e-04  1.15e-03  1.15e-03     0.1

                         ----------------------------
                         !        ITERATION     5   !
                         ----------------------------
   Total Energy        :    -188.355280294418 Eh
   Energy Change       :       0.000144367993 Eh
   MAX-DP              :       0.001150607837
   RMS-DP              :       0.000124257759
   Orbital gradient    :       0.001152637503
   Orbital Rotation    :       0.001152637503
   alpha HOMO          :      -0.3695 Eh
   alpha LUMO          :       0.0083 Eh
   Int. Num. El.       :    21.99999555 (UP=   10.99999778 DN=   10.99999778)
   Exchange            :   -17.16196735 Eh
   Correlation         :    -0.92684612 Eh

               *** Restarting incremental Fock matrix formation ***
    7    -188.3553083833209030    -2.81e-05  5.77e-05  4.22e-04  2.61e-04     0.1

                         ----------------------------
                         !        ITERATION     6   !
                         ----------------------------
   Total Energy        :    -188.355308383321 Eh
   Energy Change       :       0.000028088902 Eh
   MAX-DP              :       0.000421993549
   RMS-DP              :       0.000057674118
   Orbital gradient    :       0.000260855891
   Orbital Rotation    :       0.000509039519
   alpha HOMO          :      -0.3695 Eh
   alpha LUMO          :       0.0083 Eh
   Int. Num. El.       :    21.99999558 (UP=   10.99999779 DN=   10.99999779)
   Exchange            :   -17.16274515 Eh
   Correlation         :    -0.92686736 Eh

    8    -188.3553085648890146    -1.82e-07  3.47e-05  5.41e-04  2.36e-04     0.1

                         ----------------------------
                         !        ITERATION     7   !
                         ----------------------------
   Total Energy        :    -188.355308564889 Eh
   Energy Change       :       0.000000181568 Eh
   MAX-DP              :       0.000541239018
   RMS-DP              :       0.000034707651
   Orbital gradient    :       0.000235896486
   Orbital Rotation    :       0.000124560540
   alpha HOMO          :      -0.3695 Eh
   alpha LUMO          :       0.0083 Eh
   Int. Num. El.       :    21.99999559 (UP=   10.99999780 DN=   10.99999780)
   Exchange            :   -17.16357594 Eh
   Correlation         :    -0.92689067 Eh

    9    -188.3553088641859290    -2.99e-07  2.00e-05  3.36e-04  8.74e-05     0.1

                         ----------------------------
                         !        ITERATION     8   !
                         ----------------------------
   Total Energy        :    -188.355308864186 Eh
   Energy Change       :       0.000000299297 Eh
   MAX-DP              :       0.000335858246
   RMS-DP              :       0.000019992948
   Orbital gradient    :       0.000087411357
   Orbital Rotation    :       0.000067675438
   alpha HOMO          :      -0.3695 Eh
   alpha LUMO          :       0.0083 Eh
   Int. Num. El.       :    21.99999559 (UP=   10.99999780 DN=   10.99999780)
   Exchange            :   -17.16315532 Eh
   Correlation         :    -0.92688002 Eh

   10    -188.3553089078571361    -4.37e-08  4.96e-06  6.23e-05  2.59e-05     0.1

                         ----------------------------
                         !        ITERATION     9   !
                         ----------------------------
   Total Energy        :    -188.355308907857 Eh
   Energy Change       :       0.000000043671 Eh
   MAX-DP              :       0.000062332621
   RMS-DP              :       0.000004956585
   Orbital gradient    :       0.000025905685
   Orbital Rotation    :       0.000014928813
   alpha HOMO          :      -0.3695 Eh
   alpha LUMO          :       0.0083 Eh
   Int. Num. El.       :    21.99999559 (UP=   10.99999779 DN=   10.99999779)
   Exchange            :   -17.16306742 Eh
   Correlation         :    -0.92687622 Eh

   11    -188.3553089134747438    -5.62e-09  1.28e-06  1.15e-05  6.95e-06     0.1
                 **** Energy Check signals convergence ****

                         ----------------------------
                         !        ITERATION    10   !
                         ----------------------------
   Total Energy        :    -188.355308913475 Eh
   Energy Change       :       0.000000005618 Eh
   MAX-DP              :       0.000011521219
   RMS-DP              :       0.000001284614
   Orbital gradient    :       0.000006946832
   Orbital Rotation    :       0.000004847149
   alpha HOMO          :      -0.3695 Eh
   alpha LUMO          :       0.0083 Eh
   Int. Num. El.       :    21.99999559 (UP=   10.99999779 DN=   10.99999779)
   Exchange            :   -17.16315353 Eh
   Correlation         :    -0.92687919 Eh


               *****************************************************
               *                     SUCCESS                       *
               *           SCF CONVERGED AFTER  11 CYCLES          *
               *****************************************************

Recomputing exchange energy using gridx3       ... done (    0.205 sec)
Old exchange energy                            :     -4.295456523 Eh
New exchange energy                            :     -4.295441601 Eh
Exchange energy change after final integration :      0.000014922 Eh
Total energy after final integration           :   -188.355293991 Eh
             **** ENERGY FILE WAS UPDATED (co2_polar.en.tmp) ****

----------------
TOTAL SCF ENERGY
----------------

Total Energy       :       -188.35529399125684 Eh           -5125.40812 eV

Components:
Nuclear Repulsion  :         56.44556888533334 Eh            1535.96202 eV
Electronic Energy  :       -244.80087779880807 Eh           -6661.37054 eV
One Electron Energy:       -368.87910800069068 Eh          -10037.71084 eV
Two Electron Energy:        124.07823020188259 Eh            3376.34029 eV

Virial components:
Potential Energy   :       -375.10578006207123 Eh          -10207.14720 eV
Kinetic Energy     :        186.75048607081439 Eh            5081.73908 eV
Virial Ratio       :          2.00859332660496

DFT components:
N(Alpha)           :       10.999997794685 electrons
N(Beta)            :       10.999997794685 electrons
N(Total)           :       21.999995589370 electrons
E(X)               :      -17.163153531626 Eh       
E(C)               :       -0.926879185361 Eh       
E(XC)              :      -18.090032716987 Eh       

---------------
SCF CONVERGENCE
---------------

  Last Energy change         ...    5.6176e-09  Tolerance :   1.0000e-08
  Last MAX-Density change    ...    1.1521e-05  Tolerance :   1.0000e-07
  Last RMS-Density change    ...    1.2846e-06  Tolerance :   5.0000e-09
  Last DIIS Error            ...    1.1526e-03  Tolerance :   5.0000e-07
  Last Orbital Gradient      ...    6.9468e-06  Tolerance :   1.0000e-05
  Last Orbital Rotation      ...    4.8471e-06  Tolerance :   1.0000e-05


----------------
ORBITAL ENERGIES
----------------

  NO   OCC          E(Eh)            E(eV) 
   0   2.0000     -19.222586      -523.0732 
   1   2.0000     -19.222505      -523.0710 
   2   2.0000     -10.388947      -282.6976 
   3   2.0000      -1.130990       -30.7758 
   4   2.0000      -1.091953       -29.7136 
   5   2.0000      -0.557171       -15.1614 
   6   2.0000      -0.512892       -13.9565 
   7   2.0000      -0.504028       -13.7153 
   8   2.0000      -0.504028       -13.7153 
   9   2.0000      -0.369073       -10.0430 
  10   2.0000      -0.369073       -10.0430 
  11   0.0000       0.008377         0.2279 
  12   0.0000       0.008377         0.2279 
  13   0.0000       0.046626         1.2688 
  14   0.0000       0.343952         9.3594 
  15   0.0000       0.421651        11.4737 
  16   0.0000       0.421651        11.4737 
  17   0.0000       0.425039        11.5659 
  18   0.0000       0.717793        19.5322 
  19   0.0000       0.818383        22.2693 
  20   0.0000       0.900050        24.4916 
  21   0.0000       0.900050        24.4916 
  22   0.0000       1.017156        27.6782 
  23   0.0000       1.082667        29.4609 
  24   0.0000       1.082667        29.4609 
  25   0.0000       1.229837        33.4656 
  26   0.0000       1.535777        41.7906 
  27   0.0000       1.535783        41.7908 
  28   0.0000       1.547268        42.1033 
  29   0.0000       1.547268        42.1033 
  30   0.0000       1.575399        42.8688 
  31   0.0000       2.551722        69.4359 
  32   0.0000       2.551785        69.4376 
  33   0.0000       2.648375        72.0659 
  34   0.0000       2.648436        72.0676 
  35   0.0000       2.682765        73.0017 
  36   0.0000       2.726745        74.1985 
  37   0.0000       2.726745        74.1985 
  38   0.0000       3.446274        93.7779 
  39   0.0000       3.446274        93.7779 
  40   0.0000       3.449412        93.8633 
  41   0.0000       3.800265       103.4105 
------------------
MOLECULAR ORBITALS (RHF, ROHF)
------------------
                      0         1         2         3         4         5   
                 -19.22259 -19.22251 -10.38895  -1.13099  -1.09195  -0.55717
                   2.00000   2.00000   2.00000   2.00000   2.00000   2.00000
                  --------  --------  --------  --------  --------  --------
  0C   1s         0.000000  0.000766 -0.988324  0.192322  0.000000 -0.177901
  0C   2s         0.000000  0.000038 -0.048676 -0.382944 -0.000000  0.427311
  0C   3s         0.000000  0.010489  0.004234 -0.032132 -0.000000  0.084122
  0C   1pz        0.000000  0.000000 -0.000000  0.000000  0.000000  0.000000
  0C   1px       -0.000152  0.000000  0.000000  0.000000 -0.334134 -0.000000
  0C   1py        0.000000 -0.000000 -0.000000  0.000000 -0.000000  0.000000
  0C   2pz       -0.000000 -0.000000  0.000000 -0.000000  0.000000  0.000000
  0C   2px       -0.025235  0.000000  0.000000 -0.000000 -0.060271  0.000000
  0C   2py        0.000000  0.000000  0.000000  0.000000 -0.000000  0.000000
  0C   1dz2       0.000000  0.002239  0.003169  0.021247  0.000000 -0.004308
  0C   1dxz       0.000000  0.000000 -0.000000  0.000000 -0.000000 -0.000000
  0C   1dyz      -0.000000 -0.000000  0.000000 -0.000000 -0.000000 -0.000000
  0C   1dx2y2    -0.000000 -0.003878 -0.005489 -0.036802 -0.000000  0.007462
  0C   1dxy       0.000000  0.000000 -0.000000  0.000000  0.000000 -0.000000
  1O   1s         0.698976 -0.699059  0.000016 -0.176278 -0.193441 -0.125147
  1O   2s        -0.031474  0.029595  0.000874 -0.350025 -0.395003 -0.262056
  1O   3s         0.032961 -0.016329  0.008816 -0.175340 -0.152149 -0.287092
  1O   1pz       -0.000000  0.000000 -0.000000 -0.000000  0.000000  0.000000
  1O   1px        0.001838 -0.003052 -0.002034  0.124221  0.129619 -0.319161
  1O   1py        0.000000  0.000000 -0.000000  0.000000 -0.000000  0.000000
  1O   2pz        0.000000  0.000000  0.000000  0.000000 -0.000000  0.000000
  1O   2px       -0.006632  0.003594 -0.008048  0.024307  0.008744 -0.159707
  1O   2py       -0.000000 -0.000000 -0.000000 -0.000000  0.000000  0.000000
  1O   1dz2       0.000045 -0.000490 -0.000863  0.005219  0.005563 -0.007884
  1O   1dxz      -0.000000 -0.000000 -0.000000 -0.000000  0.000000 -0.000000
  1O   1dyz       0.000000  0.000000  0.000000 -0.000000 -0.000000  0.000000
  1O   1dx2y2    -0.000078  0.000848  0.001496 -0.009040 -0.009635  0.013656
  1O   1dxy       0.000000  0.000000  0.000000  0.000000 -0.000000  0.000000
  2O   1s        -0.698982 -0.699054  0.000016 -0.176278  0.193441 -0.125147
  2O   2s         0.031475  0.029594  0.000874 -0.350025  0.395003 -0.262056
  2O   3s        -0.032961 -0.016328  0.008816 -0.175340  0.152149 -0.287092
  2O   1pz       -0.000000  0.000000 -0.000000  0.000000  0.000000  0.000000
  2O   1px        0.001838  0.003052  0.002034 -0.124221  0.129619  0.319161
  2O   1py       -0.000000  0.000000 -0.000000  0.000000 -0.000000  0.000000
  2O   2pz        0.000000  0.000000  0.000000  0.000000  0.000000  0.000000
  2O   2px       -0.006632 -0.003594  0.008048 -0.024307  0.008744  0.159707
  2O   2py        0.000000 -0.000000 -0.000000 -0.000000 -0.000000  0.000000
  2O   1dz2      -0.000045 -0.000490 -0.000863  0.005219 -0.005563 -0.007884
  2O   1dxz       0.000000  0.000000 -0.000000  0.000000 -0.000000  0.000000
  2O   1dyz      -0.000000  0.000000 -0.000000  0.000000  0.000000  0.000000
  2O   1dx2y2     0.000078  0.000848  0.001496 -0.009040  0.009635  0.013656
  2O   1dxy       0.000000 -0.000000 -0.000000  0.000000 -0.000000  0.000000
                      6         7         8         9        10        11   
                  -0.51289  -0.50403  -0.50403  -0.36907  -0.36907   0.00838
                   2.00000   2.00000   2.00000   2.00000   2.00000   0.00000
                  --------  --------  --------  --------  --------  --------
  0C   1s        -0.000000  0.000000  0.000000  0.000000  0.000000  0.000000
  0C   2s        -0.000000 -0.000000 -0.000000 -0.000000 -0.000000 -0.000000
  0C   3s        -0.000000 -0.000000 -0.000000  0.000000 -0.000000 -0.000000
  0C   1pz        0.000000  0.382688  0.151288 -0.000000 -0.000000 -0.521101
  0C   1px        0.359621 -0.000000  0.000000 -0.000000 -0.000000  0.000000
  0C   1py       -0.000000 -0.151288  0.382688  0.000000  0.000000 -0.326197
  0C   2pz        0.000000  0.163873  0.064784  0.000000 -0.000000 -0.480335
  0C   2px       -0.051000 -0.000000 -0.000000 -0.000000 -0.000000  0.000000
  0C   2py       -0.000000 -0.064784  0.163873  0.000000 -0.000000 -0.300678
  0C   1dz2       0.000000  0.000000  0.000000 -0.000000  0.000000  0.000000
  0C   1dxz       0.000000 -0.000000 -0.000000  0.000434 -0.062463  0.000000
  0C   1dyz      -0.000000  0.000000 -0.000000 -0.000000 -0.000000  0.000000
  0C   1dx2y2    -0.000000 -0.000000 -0.000000  0.000000 -0.000000 -0.000000
  0C   1dxy       0.000000  0.000000 -0.000000  0.062463  0.000434  0.000000
  1O   1s        -0.094521  0.000000 -0.000000 -0.000000 -0.000000  0.000000
  1O   2s        -0.197898 -0.000000 -0.000000 -0.000000 -0.000000  0.000000
  1O   3s        -0.205298  0.000000  0.000000  0.000000  0.000000 -0.000000
  1O   1pz        0.000000  0.324445  0.128262  0.003249 -0.467899  0.315541
  1O   1px       -0.386059  0.000000 -0.000000  0.000000  0.000000 -0.000000
  1O   1py       -0.000000 -0.128262  0.324445  0.467899  0.003249  0.197521
  1O   2pz        0.000000  0.179456  0.070944  0.002298 -0.330964  0.319657
  1O   2px       -0.194532 -0.000000 -0.000000 -0.000000 -0.000000  0.000000
  1O   2py       -0.000000 -0.070944  0.179456  0.330964  0.002298  0.200097
  1O   1dz2      -0.008509 -0.000000 -0.000000 -0.000000 -0.000000 -0.000000
  1O   1dxz      -0.000000 -0.021724 -0.008588 -0.000114  0.016370  0.010297
  1O   1dyz      -0.000000  0.000000 -0.000000 -0.000000 -0.000000 -0.000000
  1O   1dx2y2     0.014738  0.000000  0.000000  0.000000  0.000000  0.000000
  1O   1dxy       0.000000  0.008588 -0.021724 -0.016370 -0.000114  0.006446
  2O   1s         0.094521 -0.000000  0.000000  0.000000  0.000000 -0.000000
  2O   2s         0.197898 -0.000000  0.000000  0.000000  0.000000 -0.000000
  2O   3s         0.205298 -0.000000  0.000000 -0.000000 -0.000000  0.000000
  2O   1pz        0.000000  0.324445  0.128262 -0.003249  0.467899  0.315541
  2O   1px       -0.386059  0.000000 -0.000000 -0.000000 -0.000000  0.000000
  2O   1py       -0.000000 -0.128262  0.324445 -0.467899 -0.003249  0.197521
  2O   2pz        0.000000  0.179456  0.070944 -0.002298  0.330964  0.319657
  2O   2px       -0.194532  0.000000 -0.000000 -0.000000 -0.000000  0.000000
  2O   2py       -0.000000 -0.070944  0.179456 -0.330964 -0.002298  0.200097
  2O   1dz2       0.008509 -0.000000 -0.000000  0.000000 -0.000000 -0.000000
  2O   1dxz       0.000000  0.021724  0.008588 -0.000114  0.016370 -0.010297
  2O   1dyz       0.000000  0.000000 -0.000000  0.000000  0.000000 -0.000000
  2O   1dx2y2    -0.014738  0.000000  0.000000 -0.000000  0.000000  0.000000
  2O   1dxy      -0.000000 -0.008588  0.021724 -0.016370 -0.000114 -0.006446
                     12        13        14        15        16        17   
                   0.00838   0.04663   0.34395   0.42165   0.42165   0.42504
                   0.00000   0.00000   0.00000   0.00000   0.00000   0.00000
                  --------  --------  --------  --------  --------  --------
[...]
  Form Q                    ....       0.000 sec  (  0.0 % of DIIS)
  Form QpQm                 ....       0.000 sec  (  0.0 % of DIIS)
  Exp/Cayley                ....       0.000 sec  (  0.0 % of DIIS)
  Orb update                ....       0.000 sec  (  0.0 % of DIIS)
  Wake-sleep                ....       0.000 sec  (  3.4 % of DIIS)
SOSCF solution              ....       0.001 sec  (  0.1%)
  MO trafo                  ....       0.001 sec  ( 38.6 % of SOSCF)
  Orb grad                  ....       0.000 sec  (  3.1 % of SOSCF)
  Rot update                ....       0.000 sec  ( 15.1 % of SOSCF)
  Step                      ....       0.001 sec  ( 42.2 % of SOSCF)
Finished LeanSCF after   1.5 sec

Maximum memory used throughout the entire LEANSCF-calculation: 5.9 MB

-------------------------   --------------------
FINAL SINGLE POINT ENERGY      -188.355293991257
-------------------------   --------------------

------------------------------------------------------------------------------
                         ORCA SCF GRADIENT CALCULATION
------------------------------------------------------------------------------

Nuc. rep. gradient        (SHARK) ... done (  0.0 sec)
HCore & Overlap gradient  (SHARK) ... done (  0.0 sec)
Split-RIJ-J gradient      (SHARK) ... done (  0.1 sec)
COSX-gradient                     ... done (  0.8 sec)
XC gradient                       ... done (  0.1 sec)

------------------
CARTESIAN GRADIENT
------------------

   1   C   :    0.000000046    0.000000008   -0.000000044
   2   O   :    0.071254512   -0.000000009    0.000000013
   3   O   :   -0.071254558    0.000000001    0.000000032

Difference to translation invariance:
           :   -0.0000000000    0.0000000000    0.0000000000

Difference to rotation invariance:
           :    0.0000000000    0.0000000432   -0.0000000236

Norm of the Cartesian gradient     ...    0.1007691296
RMS gradient                       ...    0.0335897099
MAX gradient                       ...    0.0712545580

-------
TIMINGS
-------

Total SCF gradient time     ....        1.072 sec

Densities                   ....       0.000 sec  (  0.0%)
One electron gradient       ....       0.005 sec  (  0.4%)
RI-J Coulomb gradient       ....       0.080 sec  (  7.4%)
COSX gradient               ....       0.846 sec  ( 78.9%)
XC gradient                 ....       0.142 sec  ( 13.2%)

Maximum memory used throughout the entire SCFGRAD-calculation: 7.2 MB

------------------------------------------------------------------------------
                              ORCA PROPERTY CALCULATIONS
------------------------------------------------------------------------------

GBWName                                 ... co2_polar.gbw
Number of atoms                         ...      3
Number of basis functions               ...     42
Max core memory                         ...   2000 MB

Electric properties:
Dipole moment                           ... YES
Quadrupole moment                       ...  NO
Static polarizability (Dipole/Dipole)   ...  NO
Static polarizability (Dipole/Quad.)    ...  NO
Static polarizability (Quad./Quad.)     ...  NO
Static polarizability (Velocity)        ...  NO

Atomic electric properties:
Dipole moment                           ...  NO
Quadrupole moment                       ...  NO
Static polarizability                   ...  NO

Choice of electric origin               ... Center of mass
Position of electric origin             ...     0.000000     0.000000     0.000000

General magnetic properties:
Magnetizability                         ...  NO

EPR properties:
g-Tensor (aka g-matrix)                 ...  NO
Zero-Field splitting spin-orbit         ...  NO
Zero-field splitting spin-spin          ...  NO
Hyperfine couplings                     ...  NO (   0 nuclei)
Quadrupole couplings                    ...  NO (   0 nuclei)
Contact density                         ...  NO (   0 nuclei)

NMR properties:
Chemical shifts                         ...  NO (   0 nuclei)
Spin-rotation constants                 ...  NO (   0 nuclei)
Spin-spin couplings                     ...  NO (   0 nuclei,    0 pairs)

Choice of magnetic origin               ... GIAO
Position of magnetic origin             ...     0.000000     0.000000     0.000000

Properties with geometric perturbations:
SCF Hessian                             ...  NO
IR spectrum                             ...  NO
VCD spectrum                            ...  NO
X-ray spectroscopy properties:
SCF XES/XAS/RIXS spectra                ...  NO


-------------
DIPOLE MOMENT
-------------

Method             : SCF
Type of density    : Electron Density
Multiplicity       :   1
Irrep              :   0
Energy             :  -188.3552939912568434 Eh
Relativity type    : 
Basis              : AO
                                X                 Y                 Z
Electronic contribution:     -0.000000001       0.000000000      -0.000000000
Nuclear contribution   :      0.000000000       0.000000000       0.000000000
                        -----------------------------------------
Total Dipole Moment    :     -0.000000001       0.000000000      -0.000000000
                        -----------------------------------------
Magnitude (a.u.)       :      0.000000001
Magnitude (Debye)      :      0.000000004



--------------------
Rotational spectrum 
--------------------
 
Rotational constants in cm-1:             0.000000             0.365857             0.365857 
Rotational constants in MHz :             0.000000         10968.122133         10968.122133 

Dipole components along the rotational axes: 
x,y,z [a.u.] :    -0.000000     0.000000    -0.000000 
x,y,z [Debye]:    -0.000000     0.000000    -0.000000 

 

Dipole moment calculation done in   0.0 sec 

Maximum memory used throughout the entire PROP-calculation: 3.8 MB

----------------------------------------------------------------------------
                           ORCA NUMERICAL FREQUENCIES
----------------------------------------------------------------------------

Number of atoms                ... 3
Central differences            ... used
Number of displacements        ... 18
Numerical increment            ... 5.000e-03 bohr
IR-spectrum generation         ... on
Raman-spectrum generation      ... off
Surface Crossing Hessian       ... off

The output will be reduced. Please look at the following files:
SCF program output             ... >co2_polar.lastscf
Integral program output        ... >co2_polar.lastint
Gradient program output        ... >co2_polar.lastgrad
Dipole moment program output   ... >co2_polar.lastmom

	<< Calculating gradient on displaced geometry   1 (of  18) >>
	<< Calculating gradient on displaced geometry   2 (of  18) >>
	<< Calculating gradient on displaced geometry   3 (of  18) >>
	<< Calculating gradient on displaced geometry   4 (of  18) >>
	<< Calculating gradient on displaced geometry   5 (of  18) >>
	<< Calculating gradient on displaced geometry   6 (of  18) >>
	<< Calculating gradient on displaced geometry   7 (of  18) >>
	<< Calculating gradient on displaced geometry   8 (of  18) >>
	<< Calculating gradient on displaced geometry   9 (of  18) >>
	<< Calculating gradient on displaced geometry  10 (of  18) >>
	<< Calculating gradient on displaced geometry  11 (of  18) >>
	<< Calculating gradient on displaced geometry  12 (of  18) >>
	<< Calculating gradient on displaced geometry  13 (of  18) >>
	<< Calculating gradient on displaced geometry  14 (of  18) >>
	<< Calculating gradient on displaced geometry  15 (of  18) >>
	<< Calculating gradient on displaced geometry  16 (of  18) >>
	<< Calculating gradient on displaced geometry  17 (of  18) >>
	<< Calculating gradient on displaced geometry  18 (of  18) >>

-----------------------
VIBRATIONAL FREQUENCIES
-----------------------

Scaling factor for frequencies =  1.000000000  (already applied!)

     0:       0.00 cm**-1
     1:       0.00 cm**-1
     2:       0.00 cm**-1
     3:       0.00 cm**-1
     4:       0.00 cm**-1
     5:     736.42 cm**-1
     6:     736.43 cm**-1
     7:    1209.12 cm**-1
     8:    2144.33 cm**-1


------------
NORMAL MODES
------------

These modes are the Cartesian displacements weighted by the diagonal matrix
M(i,i)=1/sqrt(m[i]) where m[i] is the mass of the displaced atom
Thus, these vectors are normalized but *not* orthogonal

                  0          1          2          3          4          5    
      0       0.000000   0.000000   0.000000   0.000000   0.000000   0.000002
      1       0.000000   0.000000   0.000000   0.000000   0.000000  -0.319885
      2       0.000000   0.000000   0.000000   0.000000   0.000000  -0.823302
      3       0.000000   0.000000   0.000000   0.000000   0.000000   0.000000
      4       0.000000   0.000000   0.000000   0.000000   0.000000   0.120074
      5       0.000000   0.000000   0.000000   0.000000   0.000000   0.309040
      6       0.000000   0.000000   0.000000   0.000000   0.000000  -0.000001
      7       0.000000   0.000000   0.000000   0.000000   0.000000   0.120074
      8       0.000000   0.000000   0.000000   0.000000   0.000000   0.309040
                  6          7          8    
      0      -0.000002   0.000007   0.883262
      1      -0.823302  -0.000003  -0.000002
      2       0.319885   0.000003   0.000003
      3      -0.000002   0.707104  -0.331552
      4       0.309040   0.000001   0.000001
      5      -0.120074  -0.000001  -0.000001
      6       0.000003  -0.707109  -0.331543
      7       0.309040   0.000001   0.000001
      8      -0.120074  -0.000001  -0.000001


-----------
IR SPECTRUM
-----------

 Mode   freq       eps      Int      T**2         TX        TY        TZ
       cm**-1   L/(mol*cm) km/mol    a.u.
----------------------------------------------------------------------------
  5:    736.42   0.005841   29.52  0.002475  ( 0.000000 -0.018018 -0.046374)
  6:    736.43   0.005841   29.52  0.002475  (-0.000001 -0.046374  0.018018)
  7:   1209.12   0.000000    0.00  0.000000  ( 0.000001 -0.000000  0.000000)
  8:   2144.33   0.108186  546.73  0.015744  ( 0.125476 -0.000000  0.000000)

* The epsilon (eps) is given for a Dirac delta lineshape.
** The dipole moment derivative (T) already includes vibrational overlap.

The first frequency considered to be a vibration is 5
The total number of vibrations considered is 4


--------------------------
THERMOCHEMISTRY AT 298.15K
--------------------------

Temperature         ...   298.15 K
Pressure            ...     1.00 atm
Total Mass          ...    44.01 AMU
Quasi RRHO          ...     True
Cut-Off Frequency   ...     1.00 cm^-1
The molecule is recognized as being linear

Throughout the following assumptions are being made:
  (1) The electronic state is orbitally nondegenerate
  (2) There are no thermally accessible electronically excited states
  (3) Hindered rotations indicated by low frequency modes are not
      treated as such but are treated as vibrations and this may
      cause some error
  (4) All equations used are the standard statistical mechanics
      equations for an ideal gas
  (5) All vibrations are strictly harmonic

freq.     736.42  E(vib)   ...       0.06 
freq.     736.43  E(vib)   ...       0.06 
freq.    1209.12  E(vib)   ...       0.01 
freq.    2144.33  E(vib)   ...       0.00 

------------
INNER ENERGY
------------

The inner energy is: U= E(el) + E(ZPE) + E(vib) + E(rot) + E(trans)
    E(el)   - is the total energy from the electronic structure calculation
              = E(kin-el) + E(nuc-el) + E(el-el) + E(nuc-nuc)
    E(ZPE)  - the the zero temperature vibrational energy from the frequency calculation
    E(vib)  - the the finite temperature correction to E(ZPE) due to population
              of excited vibrational states
    E(rot)  - is the rotational thermal energy
    E(trans)- is the translational thermal energy

Summary of contributions to the inner energy U:
Electronic energy                ...   -188.35529399 Eh
Zero point energy                ...      0.01099511 Eh       6.90 kcal/mol
Thermal vibrational correction   ...      0.00021419 Eh       0.13 kcal/mol
Thermal rotational correction    ...      0.00094418 Eh       0.59 kcal/mol
Thermal translational correction ...      0.00141627 Eh       0.89 kcal/mol
-----------------------------------------------------------------------
Total thermal energy                   -188.34172424 Eh


Summary of corrections to the electronic energy:
(perhaps to be used in another calculation)
Total thermal correction                  0.00257464 Eh       1.62 kcal/mol
Non-thermal (ZPE) correction              0.01099511 Eh       6.90 kcal/mol
-----------------------------------------------------------------------
Total correction                          0.01356976 Eh       8.52 kcal/mol


--------
ENTHALPY
--------

The enthalpy is H = U + kB*T
                kB is Boltzmann's constant
Total thermal energy              ...   -188.34172424 Eh 
Thermal Enthalpy correction       ...      0.00094421 Eh       0.59 kcal/mol
-----------------------------------------------------------------------
Total Enthalpy                    ...   -188.34078003 Eh


Note: Rotational entropy computed according to Herzberg 
Infrared and Raman Spectra, Chapter V,1, Van Nostrand Reinhold, 1945 
Point Group:  D(inf)h, Symmetry Number:   1  
Rotational constants in cm-1:     0.000000     0.365857     0.365857 

Vibrational entropy computed according to the QRRHO of S. Grimme
Chem.Eur.J. 2012 18 9955 using a reference frequency of 100.0 cm-1


-------
ENTROPY
-------

The entropy contributions are T*S = T*(S(el)+S(vib)+S(rot)+S(trans))
     S(el)   - electronic entropy
     S(vib)  - vibrational entropy
     S(rot)  - rotational entropy
     S(trans)- translational entropy
The entropies will be listed as multiplied by the temperature to get
units of energy

Electronic entropy                ...      0.00000000 Eh      0.00 kcal/mol
Vibrational entropy               ...      0.00027202 Eh      0.17 kcal/mol
Rotational entropy                ...      0.00692965 Eh      4.35 kcal/mol
Translational entropy             ...      0.01770880 Eh     11.11 kcal/mol
-----------------------------------------------------------------------
Final entropy term                ...      0.02491047 Eh     15.63 kcal/mol


-------------------
GIBBS FREE ENERGY
-------------------

The Gibbs free energy is G = H - T*S

Total enthalpy                    ...   -188.34078003 Eh 
Total entropy correction          ...     -0.02491047 Eh    -15.63 kcal/mol
-----------------------------------------------------------------------
Final Gibbs free energy         ...   -188.36569049 Eh

For completeness - the Gibbs free energy minus the electronic energy
G-E(el)                           ...     -0.01039650 Eh     -6.52 kcal/mol



--------------------------------
SUGGESTED CITATIONS FOR THIS RUN
--------------------------------

Below you find a list of papers that are relevant to this ORCA run
We neither can nor want to force you to cite these papers, but we appreciate if you do
You receive ORCA, which is the product of decades of hard work by many enthusiastic individuals, for free
The only thing we kindly ask in return is that you cite our papers,
We deeply appreciate it, if you show your appreciation for ORCA by not just citing the generic ORCA reference.

Please note that relegating all ORCA citations to the supporting information does *not* help us.
SI sections are not indexed - citations you put there will not count into any citation statistics
But we need these citations in order to attract the funding resources that allow us to do what we are doing

Therefore, if you are a happy ORCA user, please consider citing a few of the papers listed below in the main body of your paper

In addition to the list printed below, the program has created the file co2_polar.bibtex that contains the list in bibtex format
You can import this file easily into all common literature databanks and citation aid programs


List of essential papers. We consider these as the minimum necessary citations

  1. Neese,F.
     Software update: the ORCA program system, version 5.0
     WIRES Comput. Molec. Sci., 2022 12(1)e1606
     doi.org/10.1002/wcms.1606

List of papers to cite with high priority. The work reported in these papers was absolutely
necessary for this run to complete.
Our perspective: the developers of density functionals and basis sets usually get cited in chemistry papers
Good! But without the algorithms to do something with them, the functionals or basis sets would not do anything.
Hence, in our opinion, the algorithm design and method developments papers are equally worthy of getting cited

  1. Neese,F.
     An improvement of the resolution of the identity approximation for the formation of the Coulomb matrix
     J. Comp. Chem., 2003 24(14)1740-1747
     doi.org/10.1002/jcc.10318
  2. Neese,F.; Wennmohs,F.; Hansen,A.; Becker,U.
     Efficient, approximate and parallel Hartree-Fock and hybrid DFT calculations. A 'chain-of-spheres' algorithm for the Hartree-Fock exchange
     Chem. Phys., 2009 356(1-3)98-109
     doi.org/10.1016/j.chemphys.2008.10.036
  3. Bykov,D.; Petrenko,T.; Izsak,R.; Kossmann,S.; Becker,U.; Valeev,E.; Neese,F.
     Efficient implementation of the analytic second derivatives of Hartree-Fock and hybrid DFT energies: a detailed analysis of different approximations
     Molec. Phys., 2015 113 1961-1977
     doi.org/10.1080/00268976.2015.1025114
  4. Helmich-Paris,B.; de Souza,B.; Neese,F.; Izsák,R.
     An improved chain of spheres for exchange algorithm
     J. Chem. Phys., 2021 155 104109
     doi.org/doi: 10.1063/5.0058766.
  5. Neese,F.
     The SHARK Integral Generation and Digestion System
     J. Comp. Chem., 2022  1-16
     doi.org/10.1002/jcc.26942

List of suggested additional citations. These are papers that are important in the 'surrounding' of 
of this run, or papers that preceded the highly important papers. If you like your results we are grateful for a citation.

  1. Izsak,R.; Neese,F.
     An overlap fitted chain of spheres exchange method
     J. Chem. Phys., 2011 135 144105
     doi.org/10.1063/1.3646921
  2. Izsak,R.; Hansen,A.; Neese,F.
     The resolution of identity and chain of spheres approximations for the LPNO-CCSD singles Fock term
     Molec. Phys., 2012 110 2413-2417
     doi.org/10.1080/00268976.2012.687466
  3. Neese,F.
     The ORCA program system
     WIRES Comput. Molec. Sci., 2012 2(1)73-78
     doi.org/10.1002/wcms.81
  4. Izsak,R.; Neese,F.; Klopper,W.
     Robust fitting techniques in the chain of spheres approximation to the Fock exchange: The role of the complementary space
     J. Chem. Phys., 2013 139 
     doi.org/10.1063/1.4819264
  5. Neese,F.
     Software update: the ORCA program system, version 4.0
     WIRES Comput. Molec. Sci., 2018 8(1)1-6
     doi.org/10.1002/wcms.1327
  6. Neese,F.; Wennmohs,F.; Becker,U.; Riplinger,C.
     The ORCA quantum chemistry program package
     J. Chem. Phys., 2020 152 Art. No. L224108
     doi.org/10.1063/5.0004608

List of optional additional citations

  1. Neese,F.
     Approximate second-order SCF convergence for spin unrestricted wavefunctions
     Chem. Phys. Lett., 2000 325(1-3)93-98
     doi.org/10.1016/s0009-2614(00)00662-x

Timings for individual modules:

Sum of individual times          ...       51.262 sec (=   0.854 min)
Startup calculation              ...        0.320 sec (=   0.005 min)   0.6 %
SCF iterations                   ...        3.194 sec (=   0.053 min)   6.2 %
Property calculations            ...        0.043 sec (=   0.001 min)   0.1 %
SCF Gradient evaluation          ...        2.232 sec (=   0.037 min)   4.4 %
Numerical frequency calculation  ...       45.473 sec (=   0.758 min)  88.7 %
                             ****ORCA TERMINATED NORMALLY****
TOTAL RUN TIME: 0 days 0 hours 0 minutes 48 seconds 454 msec
