
                                 *****************
                                 * O   R   C   A *
                                 *****************

                                            #,                                       
                                            ###                                      
                                            ####                                     
                                            #####                                    
                                            ######                                   
                                           ########,                                 
                                     ,,################,,,,,                         
                               ,,#################################,,                 
                          ,,##########################################,,             
                       ,#########################################, ''#####,          
                    ,#############################################,,   '####,        
                  ,##################################################,,,,####,       
                ,###########''''           ''''###############################       
              ,#####''   ,,,,##########,,,,          '''####'''          '####       
            ,##' ,,,,###########################,,,                        '##       
           ' ,,###''''                  '''############,,,                           
         ,,##''                                '''############,,,,        ,,,,,,###''
      ,#''                                            '''#######################'''  
     '                                                          ''''####''''         
             ,#######,   #######,   ,#######,      ##                                
            ,#'     '#,  ##    ##  ,#'     '#,    #''#        ,####,   ,####,        
            ##       ##  ##   ,#'  ##            #'  '#       #'       #'  '#        
            ##       ##  #######   ##           ,######,      #####,   #    #        
            '#,     ,#'  ##    ##  '#,     ,#' ,#      #,     #,   #   #,  ,#        
             '#######'   ##     ##  '#######'  #'      '#     '####' # '####'        



                #########################################################
                #                        -***-                          #
                #          Department of theory and spectroscopy        #
                #                                                       #
                #                      Frank Neese                      #
                #                                                       #
                #     Directorship, Architecture, Infrastructure        #
                #                    SHARK, DRIVERS                     #
                #        Core code/Algorithms in most modules           #
                #                                                       #
                #        Max Planck Institute fuer Kohlenforschung      #
                #                Kaiser Wilhelm Platz 1                 #
                #                 D-45470 Muelheim/Ruhr                 #
                #                      Germany                          #
                #                                                       #
                #                  All rights reserved                  #
                #                        -***-                          #
                #########################################################


                         Program Version 6.0.1  -  RELEASE   -


 With contributions from (in alphabetic order):
[Max-Planck-Institut fuer Kohlenforschung]                               
  Daniel Aravena         : Magnetic Suceptibility                        
  Michael Atanasov       : Ab Initio Ligand Field Theory (pilot matlab implementation)
  Alexander A. Auer      : GIAO ZORA, VPT2 properties, NMR spectrum      
  Ute Becker             : All parallelization in ORCA, NUMFREQ, NUMCALC 
  Giovanni Bistoni       : ED, misc. LED, open-shell LED, HFLD           
  Martin Brehm           : Molecular dynamics                            
  Dmytro Bykov           : pre 5.0 version of the SCF Hessian            
  Marcos Casanova-Páez   : Triplet and SCS-CIS(D). UHF-(DLPNO)-IP/EA/STEOM-CCSD. UHF-CVS-IP/STEOM-CCSD   
  Vijay G. Chilkuri      : MRCI spin determinant printing, contributions to CSF-ICE 
  Pauline Colinet        : FMM embedding                                 
  Dipayan Datta          : RHF DLPNO-CCSD density                        
  Achintya Kumar Dutta   : EOM-CC, STEOM-CC                              
  Nicolas Foglia         : Exact transition moments, OPA infrastructure, MCD improvements    
  Dmitry Ganyushin       : Spin-Orbit,Spin-Spin,Magnetic field MRCI      
  Miquel Garcia-Rates    : C-PCM and meta-GGA Hessian, CCSD/C-PCM, Gaussian charge scheme 
  Tiago L. C. Gouveia    : GS-ROHF, GS-ROCIS                             
  Yang Guo               : DLPNO-NEVPT2, F12-NEVPT2, CIM, IAO-localization        
  Andreas Hansen         : Spin unrestricted coupled pair/coupled cluster methods 
  Ingolf Harden          : AUTO-CI MPn and infrastructure                
  Benjamin Helmich-Paris : MC-RPA, TRAH-(SCF,CASSCF), AVAS, COSX integrals, SCF dyn. polar. 
  Lee Huntington         : MR-EOM, pCC                                   
  Robert Izsak           : Overlap fitted RIJCOSX, COSX-SCS-MP3, EOM     
  Riya Kayal             : Wick's Theorem for AUTO-CI, AUTO-CI UHF-CCSDT 
  Emily Kempfer          : AUTO-CI, RHF CISDT and CCSDT                  
  Christian Kollmar      : KDIIS, OOCD, Brueckner-CCSD(T), CCSD density, CASPT2, CASPT2-K, improved NEVPT2 
  Axel Koslowski         : Symmetry handling                             
  Simone Kossmann        : meta-GGA functionals, TD-DFT gradient, OOMP2, (MP2 Hessian; deprecated post 5.0) 
  Lucas Lang             : DCDCAS                                        
  Marvin Lechner         : AUTO-CI (C++ implementation), FIC-MRCC        
  Spencer Leger          : CASSCF response                               
  Dagmar Lenk            : GEPOL surface, SMD, ORCA-2-JSON               
  Dimitrios Liakos       : Extrapolation schemes; Compound Job, initial MDCI parallelization 
  Dimitrios Manganas     : Further ROCIS development; embedding schemes. LFT, Crystal Embedding 
  Dimitrios Pantazis     : SARC Basis sets                               
  Anastasios Papadopoulos: AUTO-CI, single reference methods and gradients 
  Taras Petrenko         : pre 6.0 DFT Hessian and TD-DFT gradient, (ASA, deprecated), ECA, 1-Electron XAS/XES, NRVS 
  Peter Pinski           : DLPNO-MP2, DLPNO-MP2 Gradient                 
  Christoph Reimann      : Effective Core Potentials                     
  Marius Retegan         : Local ZFS, SOC                                
  Christoph Riplinger    : Optimizer, TS searches, QM/MM, DLPNO-CCSD(T), (RO)-DLPNO pert. Triples 
  Michael Roemelt        : Original ROCIS implementation                 
  Masaaki Saitow         : Open-shell DLPNO-CCSD energy and density      
  Barbara Sandhoefer     : DKH picture change effects                    
  Kantharuban Sivalingam : CASSCF convergence/infrastructure, NEVPT2 and variants, FIC-MRCI 
  Bernardo de Souza      : ESD, SOC TD-DFT                               
  Georgi L. Stoychev     : AutoAux, RI-MP2 NMR, DLPNO-MP2 response, X2C  
  Van Anh Tran           : RI-MP2 g-tensors                              
  Willem Van den Heuvel  : Paramagnetic NMR                              
  Zikuan Wang            : NOTCH, Electric field optimization            
  Frank Wennmohs         : Technical directorship and infrastructure     
  Hang Xu                : AUTO-CI-Response properties                   
                                                                         
[FACCTs GmbH]                                                            
  Markus Bursch, Miquel Garcia-Rates, Christoph Riplinger, Bernardo de Souza, Georgi L. Stoychev 
                                                                 
  APM, Basis sets (HGBS, AHGBS, def-TZVP (Ac-Lr), def2-XVPD (La-Lu)), CI-OPT, improved COSX, DLPNO-Multilevel,           
  DOCKER, DRACO, updates on ESD, GOAT, IRC, LR-CPCM, MBIS, meta-GGA TD-DFT gradient, ML-optimized integration grids, 
  MM, NACMEs, nearIR, NEB, NEB-TS, NL-DFT gradient (VV10), 2- and 3-layer-ONIOM, interface openCOSMO-RS, QMMM,   
  Crystal-QMMM, SF, symmetry and pop. for TD-DFT, r2SCAN hybrids, SOLVATOR                                   
                                                                         
[Other institutions]                                                     
  V. Asgeirsson          : NEB                                           
  Christoph Bannwarth    : sTDA-DFT, sTD-DFT, PBEh-3c, B97-3c, D3        
  Sebastian Ehlert       : rSCAN, r2SCAN, r2SCAN-3c, D4, dhf basis sets  
  Marvin Friede          : D4 for Fr, Ra, Ac-Lr                          
  Lars Goerigk           : TD-DFT with DH, B97 family of functionals     
  Stefan Grimme          : VdW corrections, initial TS optimization, DFT functionals, gCP, sTDA/sTD-DF 
  Waldemar Hujo          : DFT-NL                                        
  H. Jonsson             : NEB                                           
  Holger Kruse           : gCP                                           
  Marcel Mueller         : wB97X-3c, vDZP basis set                      
  Hagen Neugebauer       : wr2SCAN                                       
  Tobias Risthaus        : range-separated hybrid DFT                    
  Lukas Wittmann         : regularized MP2, r2SCAN double-hybrids, wr2SCAN        
                                                                         
We gratefully acknowledge several colleagues who have allowed us to      
interface, adapt or use parts of their codes:                            
  Ed Valeev, F. Pavosevic, A. Kumar             : LibInt (2-el integral package), F12 methods 
  Garnet Chan, S. Sharma, J. Yang, R. Olivares  : DMRG                   
  Ulf Ekstrom                                   : XCFun DFT Library      
  Mihaly Kallay                                 : mrcc  (arbitrary order and MRCC methods)
  Frank Weinhold                                : gennbo (NPA and NBO analysis)           
  Simon Mueller                                 : openCOSMO-RS                            
  Christopher J. Cramer and Donald G. Truhlar   : smd solvation model                     
  S Lehtola, MJT Oliveira, MAL Marques          : LibXC Library                           
  Liviu Ungur et al                             : ANISO software                          


 Your calculation uses the libint2 library for the computation of 2-el integrals
 For citations please refer to: http://libint.valeyev.net

 Your ORCA version has been built with support for libXC version: 6.2.2
 For citations please refer to: https://libxc.gitlab.io

 This ORCA versions uses:
   CBLAS   interface :  Fast vector & matrix operations
   LAPACKE interface :  Fast linear algebra routines
   SCALAPACK package :  Parallel linear algebra routines
   Shared memory     :  Shared parallel matrices
   BLAS/LAPACK       :  OpenBLAS 0.3.27  USE64BITINT DYNAMIC_ARCH NO_AFFINITY SkylakeX SINGLE_THREADED
        Core in use  :  SkylakeX
   Copyright (c) 2011-2014, The OpenBLAS Project


NOTE: MaxCore=2000 MB was set to SCF,MP2,MDCI,CIPSI,MRCI and CIS
      => If you want to overwrite this, your respective input block should be placed after the MaxCore statement
Warning: RI is on but no J-basis has been assigned. Assigning Def2/J (nothing to worry about!)
================================================================================

----- Orbital basis set information -----
Your calculation utilizes the basis: def2-SVP
   F. Weigend and R. Ahlrichs, Phys. Chem. Chem. Phys. 7, 3297 (2005).

----- AuxJ basis set information -----
Your calculation utilizes the auxiliary basis: def2/J
   F. Weigend, Phys. Chem. Chem. Phys. 8, 1057 (2006).

================================================================================
                                        WARNINGS
                       Please study these warnings very carefully!
================================================================================


WARNING: Analytical Hessian not available for calculation of RAMAN spectra
       : If you need RAMAN spectra, please choose NumFreq!
       : Will only calculate polarizabilties



WARNING: Geometry Optimization
  ===> : Switching off AutoStart
         For restart on a previous wavefunction, please use MOREAD

================================================================================
                                       INPUT FILE
================================================================================
NAME = co2_opt.inp
|  1> ! B3LYP def2-SVP Opt Freq TightSCF
|  2> 
|  3> %maxcore 2000
|  4> 
|  5> %freq
|  6> PROJECTTR false
|  7> end
|  8> %output
|  9>   PrintLevel 5
| 10> end
| 11> * xyz 0 1
| 12>   C          -0.00000229681799      0.00000001976635      0.00000000873661
| 13>   O           1.16004276990079     -0.00000000988324     -0.00000000436829
| 14>   O          -1.16004047308281     -0.00000000988311     -0.00000000436832
| 15> *
| 16> %elprop
| 17>  Polar 1
| 18> end
| 19> 
| 20>                          ****END OF INPUT****
================================================================================

                       *****************************
                       * Geometry Optimization Run *
                       *****************************

Geometry optimization settings:
Update method            Update   .... BFGS
Choice of coordinates    CoordSys .... (2022) Redundant Internals
Initial Hessian          InHess   .... Almloef's Model
Max. no of cycles        MaxIter  .... 50

Convergence Tolerances:
Energy Change            TolE     ....  5.0000e-06 Eh
Max. Gradient            TolMAXG  ....  3.0000e-04 Eh/bohr
RMS Gradient             TolRMSG  ....  1.0000e-04 Eh/bohr
Max. Displacement        TolMAXD  ....  4.0000e-03 bohr
RMS Displacement         TolRMSD  ....  2.0000e-03 bohr
Strict Convergence                .... False

------------------------------------------------------------------------------
                        ORCA OPTIMIZATION COORDINATE SETUP
------------------------------------------------------------------------------

The optimization will be done in redundant internal coordinates (2022)
Making redundant internal coordinates   ...  (2022 redundants) done
Evaluating the initial hessian          ...  (Almloef) done
Evaluating the coordinates              ...  done
Calculating the B-matrix                .... done
Calculating the G-matrix                .... done
Diagonalizing the G-matrix              .... done
The first mode is                       ....    0
The number of degrees of freedom        ....    4

    -----------------------------------------------------------------
                    Redundant Internal Coordinates


    -----------------------------------------------------------------
         Definition                    Initial Value    Approx d2E/dq
    -----------------------------------------------------------------
      1. B(O   1,C   0)                  1.1600         1.302428   
      2. B(O   2,C   0)                  1.1600         1.302461   
      3. L(O   1,C   0,O   2, 2)       180.0000         0.563956   
      4. L(O   1,C   0,O   2, 1)       180.0000         0.563956   
    -----------------------------------------------------------------

Number of atoms                         .... 3
Number of degrees of freedom            .... 4


         *************************************************************
         *                GEOMETRY OPTIMIZATION CYCLE   1            *
         *************************************************************
---------------------------------
CARTESIAN COORDINATES (ANGSTROEM)
---------------------------------
  C     -0.000002    0.000000    0.000000
  O      1.160043   -0.000000   -0.000000
  O     -1.160040   -0.000000   -0.000000

----------------------------
CARTESIAN COORDINATES (A.U.)
----------------------------
  NO LB      ZA    FRAG     MASS         X           Y           Z
   0 C     6.0000    0    12.011   -0.000004    0.000000    0.000000
   1 O     8.0000    0    15.999    2.192163   -0.000000   -0.000000
   2 O     8.0000    0    15.999   -2.192159   -0.000000   -0.000000

--------------------------------
INTERNAL COORDINATES (ANGSTROEM)
--------------------------------
 C      0   0   0     0.000000000000     0.00000000     0.00000000
 O      1   0   0     1.160045066719     0.00000000     0.00000000
 O      1   2   0     1.160038176265   179.99999658     0.00000000

---------------------------
INTERNAL COORDINATES (A.U.)
---------------------------
 C      0   0   0     0.000000000000     0.00000000     0.00000000
 O      1   0   0     2.192167479105     0.00000000     0.00000000
 O      1   2   0     2.192154458034   179.99999658     0.00000000

---------------------
BASIS SET INFORMATION
---------------------
There are 2 groups of distinct atoms

 Group   1 Type C   : 7s4p1d contracted to 3s2p1d pattern {511/31/1}
 Group   2 Type O   : 7s4p1d contracted to 3s2p1d pattern {511/31/1}

Atom   0C    basis set group =>   1
Atom   1O    basis set group =>   2
Atom   2O    basis set group =>   2

-------------------------
BASIS SET IN INPUT FORMAT
-------------------------

 # Basis set for element : C 
 NewGTO C 
 S 5 
   1    1238.4016938000      0.0055173650
   2     186.2900499200      0.0410888285
   3      42.2511763460      0.1822538213
   4      11.6765579320      0.4682845944
   5       3.5930506482      0.4457581734
 S 1 
   1       0.4024514736      1.0000000000
 S 1 
   1       0.1309018267      1.0000000000
 P 3 
   1       9.4680970621      0.0568883320
   2       2.0103545142      0.3129405934
   3       0.5477100471      0.7606501651
 P 1 
   1       0.1526861379      1.0000000000
 D 1 
   1       0.8000000000      1.0000000000
  end;

 # Basis set for element : O 
 NewGTO O 
 S 5 
   1    2266.1767785000     -0.0053893504
   2     340.8701019100     -0.0402347214
   3      77.3631351670     -0.1800818421
   4      21.4796449400     -0.4682885766
   5       6.6589433124     -0.4469261716
 S 1 
   1       0.8097597567      1.0000000000
 S 1 
   1       0.2553077223      1.0000000000
 P 3 
   1      17.7215043170      0.0626302488
   2       3.8635505440      0.3333113849
   3       1.0480920883      0.7414863830
 P 1 
   1       0.2764154441      1.0000000000
 D 1 
   1       1.2000000000      1.0000000000
  end;

---------------------------------
AUXILIARY/J BASIS SET INFORMATION
---------------------------------
There are 2 groups of distinct atoms

 Group   1 Type C   : 12s5p4d2f1g contracted to 6s4p3d1f1g pattern {711111/2111/211/2/1}
 Group   2 Type O   : 12s5p4d2f1g contracted to 6s4p3d1f1g pattern {711111/2111/211/2/1}

Atom   0C    basis set group =>   1
Atom   1O    basis set group =>   2
Atom   2O    basis set group =>   2

-------------------------------------
AUXILIARY/J BASIS SET IN INPUT FORMAT
-------------------------------------

 # Auxiliary/J basis set for element : C 
 NewAuxJGTO C 
 S 7 
   1    1861.0916331000      0.0134602335
   2     642.9939764000      0.0299160374
   3     235.1105725000      0.1008649584
   4      90.7028894000      0.2370970548
   5      36.7794552000      0.3924037254
   6      15.6046273000      0.3195862154
   7       6.8907294000      0.0530104441
 S 1 
   1       3.1478850000     -1.0000000000
 S 1 
   1       1.4777287000      1.0000000000
 S 1 
   1       0.7076466000      1.0000000000
 S 1 
   1       0.3430122000      1.0000000000
 S 1 
   1       0.1669453000      1.0000000000
 P 2 
   1      13.5472892000     -0.6769313712
   2       5.4669419000     -0.3779500978
 P 1 
   1       2.1751721000      1.0000000000
 P 1 
   1       0.8582194000      1.0000000000
 P 1 
   1       0.3376720000      1.0000000000
 D 2 
   1       5.9287253000     -0.3533329857
   2       1.9809209000     -0.7456525731
 D 1 
   1       0.8055417000     -1.0000000000
 D 1 
   1       0.3531244000     -1.0000000000
 F 2 
   1       1.6755626000      0.6311076882
   2       0.5997536000      0.4968166032
 G 1 
   1       1.0024600000     -1.0000000000
  end;

 # Auxiliary/J basis set for element : O 
 NewAuxJGTO O 
 S 7 
   1    2876.8216605000      0.0168151159
   2    1004.7443032000      0.0340137548
   3     369.7579954000      0.1194951309
   4     142.9442404000      0.2664627624
   5      57.8366425000      0.4202764046
   6      24.3864983000      0.2765077335
   7      10.6622662000      0.0057008815
 S 1 
   1       4.8070437000     -1.0000000000
 S 1 
   1       2.2210770000      1.0000000000
 S 1 
   1       1.0447795000      1.0000000000
 S 1 
   1       0.4968425000      1.0000000000
 S 1 
   1       0.2371384000      1.0000000000
 P 2 
   1      64.2613382000     -0.2731534179
   2      16.3006076000     -0.8168011598
 P 1 
   1       4.3550542000      1.0000000000
 P 1 
   1       1.2019554000      1.0000000000
 P 1 
   1       0.3354196000      1.0000000000
 D 2 
   1       9.2146611000     -0.4661230638
   2       2.8435251000     -0.6600908911
 D 1 
   1       0.9955759000     -1.0000000000
 D 1 
   1       0.3649441000     -1.0000000000
 F 2 
   1       2.6420115000      0.5931563945
   2       0.7345613000      0.5931563945
 G 1 
   1       1.3931000000     -1.0000000000
  end;

------------------------------------------------------------------------------
                             ORCA STARTUP CALCULATIONS
                           -- RI-GTO INTEGRALS CHOSEN --
------------------------------------------------------------------------------
------------------------------------------------------------------------------
                   ___                                                        
                  /   \      - P O W E R E D   B Y -                         
                 /     \                                                     
                 |  |  |   _    _      __       _____    __    __             
                 |  |  |  | |  | |    /  \     |  _  \  |  |  /  |          
                  \  \/   | |  | |   /    \    | | | |  |  | /  /          
                 / \  \   | |__| |  /  /\  \   | |_| |  |  |/  /          
                |  |  |   |  __  | /  /__\  \  |    /   |      \           
                |  |  |   | |  | | |   __   |  |    \   |  |\   \          
                \     /   | |  | | |  |  |  |  | |\  \  |  | \   \       
                 \___/    |_|  |_| |__|  |__|  |_| \__\ |__|  \__/        
                                                                              
                      - O R C A' S   B I G   F R I E N D -                    
                                      &                                       
                       - I N T E G R A L  F E E D E R -                       
                                                                              
 v1 FN, 2020, v2 2021, v3 2022-2024                                           
------------------------------------------------------------------------------


----------------------
SHARK INTEGRAL PACKAGE
----------------------

Number of atoms                             ...      3
Number of basis functions                   ...     42
Number of shells                            ...     18
Maximum angular momentum                    ...      2
Integral batch strategy                     ... SHARK/LIBINT Hybrid
RI-J (if used) integral strategy            ... SPLIT-RIJ (Revised 2003 algorithm where possible)
Printlevel                                  ...      1
Contraction scheme used                     ... SEGMENTED contraction
Prescreening option                         ... SCHWARTZ
   Thresh                                   ... 2.500e-11
   Tcut                                     ... 2.500e-12
   Tpresel                                  ... 2.500e-12 
Coulomb Range Separation                    ... NOT USED
Exchange Range Separation                   ... NOT USED
Multipole approximations                    ... NOT USED
Finite Nucleus Model                        ... NOT USED
CABS basis                                  ... NOT available
Auxiliary Coulomb fitting basis             ... AVAILABLE
   # of basis functions in Aux-J            ...    147
   # of shells in Aux-J                     ...     45
   Maximum angular momentum in Aux-J        ...      4
Auxiliary J/K fitting basis                 ... NOT available
Auxiliary Correlation fitting basis         ... NOT available
Auxiliary 'external' fitting basis          ... NOT available

Checking pre-screening integrals            ... done (  0.0 sec) Dimension = 18
Check shell pair data                       ... done (  0.0 sec)
Shell pair information
Shell pair cut-off parameter TPreSel        ...   2.5e-12
Total number of shell pairs                 ...       171
Shell pairs after pre-screening             ...       170
Total number of primitive shell pairs       ...       705
Primitive shell pairs kept                  ...       604
          la=0 lb=0:     44 shell pairs
          la=1 lb=0:     54 shell pairs
          la=1 lb=1:     21 shell pairs
          la=2 lb=0:     27 shell pairs
          la=2 lb=1:     18 shell pairs
          la=2 lb=2:      6 shell pairs

Calculating one electron integrals          ... done (  0.0 sec)
Calculating RI/J V-Matrix + Cholesky decomp.... done (  0.0 sec)
Calculating Nuclear repulsion               ... done (  0.0 sec) ENN=     58.389872749343 Eh

Diagonalization of the overlap matrix:
Smallest eigenvalue                        ... 9.119e-03
Time for diagonalization                   ...    0.000 sec
Threshold for overlap eigenvalues          ... 1.000e-07
Number of eigenvalues below threshold      ... 0
Time for construction of square roots      ...    0.000 sec
Total time needed                          ...    0.001 sec

-------------------
DFT GRID GENERATION
-------------------

General Integration Accuracy     IntAcc      ... 4.388
Radial Grid Type                 RadialGrid  ... OptM3 with GC (2021)
Angular Grid (max. ang.)         AngularGrid ... 4 (Lebedev-302)
Angular grid pruning method      GridPruning ... 4 (adaptive)
Weight generation scheme         WeightScheme... mBecke (2022)
Basis function cutoff            BFCut       ... 1.0000e-11
Integration weight cutoff        WCut        ... 1.0000e-14
Partially contracted basis set               ... off
Rotationally invariant grid construction     ... off
Angular grids for H and He will be reduced by one unit

Total number of grid points                  ...    18360
Total number of batches                      ...      288
Average number of points per batch           ...       63
Average number of grid points per atom       ...     6120

--------------------
COSX GRID GENERATION
--------------------

GRIDX 1
-------
General Integration Accuracy     IntAcc      ... 3.816
Radial Grid Type                 RadialGrid  ... OptM3 with GC (2021)
Angular Grid (max. ang.)         AngularGrid ... 1 (Lebedev-50)
Angular grid pruning method      GridPruning ... 4 (adaptive)
Weight generation scheme         WeightScheme... mBecke (2022)
Basis function cutoff            BFCut       ... 1.0000e-11
Integration weight cutoff        WCut        ... 1.0000e-14
Partially contracted basis set               ... on
Rotationally invariant grid construction     ... off
Angular grids for H and He will be reduced by one unit

Total number of grid points                  ...     2292
Total number of batches                      ...       20
Average number of points per batch           ...      114
Average number of grid points per atom       ...      764
UseSFitting                                  ... on

GRIDX 2
-------
General Integration Accuracy     IntAcc      ... 4.020
Radial Grid Type                 RadialGrid  ... OptM3 with GC (2021)
Angular Grid (max. ang.)         AngularGrid ... 2 (Lebedev-110)
Angular grid pruning method      GridPruning ... 4 (adaptive)
Weight generation scheme         WeightScheme... mBecke (2022)
Basis function cutoff            BFCut       ... 1.0000e-11
Integration weight cutoff        WCut        ... 1.0000e-14
Partially contracted basis set               ... on
Rotationally invariant grid construction     ... off
Angular grids for H and He will be reduced by one unit

Total number of grid points                  ...     5632
Total number of batches                      ...       45
Average number of points per batch           ...      125
Average number of grid points per atom       ...     1877
UseSFitting                                  ... on

GRIDX 3
-------
General Integration Accuracy     IntAcc      ... 4.338
Radial Grid Type                 RadialGrid  ... OptM3 with GC (2021)
Angular Grid (max. ang.)         AngularGrid ... 3 (Lebedev-194)
Angular grid pruning method      GridPruning ... 4 (adaptive)
Weight generation scheme         WeightScheme... mBecke (2022)
Basis function cutoff            BFCut       ... 1.0000e-11
Integration weight cutoff        WCut        ... 1.0000e-14
Partially contracted basis set               ... on
Rotationally invariant grid construction     ... off
Angular grids for H and He will be reduced by one unit

Total number of grid points                  ...    12568
Total number of batches                      ...      100
Average number of points per batch           ...      125
Average number of grid points per atom       ...     4189
UseSFitting                                  ... on
Initializing property integral containers    ... done (  0.0 sec)

SHARK setup successfully completed in   0.2 seconds

Maximum memory used throughout the entire STARTUP-calculation: 9.4 MB
-------------------------------------------------------------------------------
                                 ORCA GUESS
                   Start orbitals & Density for SCF / CASSCF
-------------------------------------------------------------------------------

------------
SCF SETTINGS
------------
Hamiltonian:
 Density Functional     Method          .... DFT(GTOs)
 Exchange Functional    Exchange        .... B88
   X-Alpha parameter    XAlpha          ....  0.666667
   Becke's b parameter  XBeta           ....  0.004200
 Correlation Functional Correlation     .... LYP
 LDA part of GGA corr.  LDAOpt          .... VWN-5
 Gradients option       PostSCFGGA      .... off
 Hybrid DFT is turned on
   Fraction HF Exchange ScalHFX         ....  0.200000
   Scaling of DF-GGA-X  ScalDFX         ....  0.720000
   Scaling of DF-GGA-C  ScalDFC         ....  0.810000
   Scaling of DF-LDA-C  ScalLDAC        ....  1.000000
   Perturbative correction              ....  0.000000
   NL short-range parameter             ....  4.800000
 RI-approximation to the Coulomb term is turned on
   Number of AuxJ basis functions       .... 147
   RIJ-COSX (HFX calculated with COS-X)).... on


General Settings:
 Integral files         IntName         .... co2_opt
 Hartree-Fock type      HFTyp           .... RHF
 Total Charge           Charge          ....    0
 Multiplicity           Mult            ....    1
 Number of Electrons    NEL             ....   22
 Basis Dimension        Dim             ....   42
 Nuclear Repulsion      ENuc            ....     58.3898727493 Eh

Convergence Acceleration:
 AO-DIIS                CNVDIIS         .... on
   Start iteration      DIISMaxIt       ....    12
   Startup error        DIISStart       ....  0.200000
   # of expansion vecs  DIISMaxEq       ....     5
   Bias factor          DIISBfac        ....   1.050
   Max. coefficient     DIISMaxC        ....  10.000
 MO-DIIS                CNVKDIIS        .... off
 Trust-Rad. Augm. Hess. CNVTRAH         .... auto
   Auto Start mean grad. ratio tolernc. ....  1.125000
   Auto Start start iteration           ....    50
   Auto Start num. interpolation iter.  ....    10
   Max. Number of Micro iterations      ....    24
   Max. Number of Macro iterations      .... Maxiter - #DIIS iter
   Number of Davidson start vectors     ....     2
   Converg. threshold    (grad. norm)   ....   1.000e-05
   Grad. Scal. Fac. for Micro threshold ....   0.100
   Minimum threshold for Micro iter.    ....   1.000e-02
   NR start threshold (gradient norm)   ....   1.000e-04
   Initial trust radius                 ....   0.400
   Minimum AH scaling param. (alpha)    ....   1.000
   Maximum AH scaling param. (alpha)    .... 1000.000
   Quad. conv. algorithm                .... NR
   White noise on init. David. guess    .... on
   Maximum white noise                  ....   0.010
   Pseudo random numbers                .... off
   Inactive MOs                         .... canonical
   Orbital update algorithm             .... Taylor
   Preconditioner                       .... Diag
   Full preconditioner red. dimension   ....   250
 SOSCF                  CNVSOSCF        .... on
   Start iteration      SOSCFMaxIt      ....   150
   Startup grad/error   SOSCFStart      ....  0.003300
   Hessian update       SOSCFHessUp     .... L-BFGS
 Level Shifting         CNVShift        .... on
   Level shift para.    LevelShift      ....    0.2500
   Turn off err/grad.   ShiftErr        ....    0.0010
 Zerner damping         CNVZerner       .... off
 Static damping         CNVDamp         .... on
   Fraction old density DampFac         ....    0.7000
   Max. Damping (<1)    DampMax         ....    0.9800
   Min. Damping (>=0)   DampMin         ....    0.0000
   Turn off err/grad.   DampErr         ....    0.1000

SCF Procedure:
 Maximum # iterations   MaxIter         ....   125
 SCF integral mode      SCFMode         .... Direct
   Integral package                     .... SHARK and LIBINT hybrid scheme
 Reset frequency        DirectResetFreq ....    20
 Integral Threshold     Thresh          ....  2.500e-11 Eh
 Primitive CutOff       TCut            ....  2.500e-12 Eh

Convergence Tolerance:
 Convergence Check Mode ConvCheckMode   .... Total+1el-Energy
 Convergence forced     ConvForced      .... 0
 Energy Change          TolE            ....  1.000e-08 Eh
 1-El. energy change                    ....  1.000e-05 Eh
 Orbital Gradient       TolG            ....  1.000e-05
 Orbital Rotation angle TolX            ....  1.000e-05
 DIIS Error             TolErr          ....  5.000e-07

------------------------------
INITIAL GUESS: MODEL POTENTIAL
------------------------------
Loading Hartree-Fock densities                     ... done
Calculating cut-offs                               ... done
Initializing the effective Hamiltonian             ... done
Setting up the integral package (SHARK)            ... done
Starting the Coulomb interaction                   ... done (   0.0 sec)
Making the grid                                    ... done (   0.0 sec)
Mapping shells                                     ... done
Starting the XC term evaluation                    ... done (   0.0 sec)
  promolecular density results
     # of electrons  =     22.000151614
     EX              =    -21.510775478
     EC              =     -0.787312485
     EX+EC           =    -22.298087963
Transforming the Hamiltonian                       ... done (   0.0 sec)
Diagonalizing the Hamiltonian                      ... done (   0.0 sec)
Back transforming the eigenvectors                 ... done (   0.0 sec)
Now organizing SCF variables                       ... done
                      ------------------
                      INITIAL GUESS DONE (   0.0 sec)
                      ------------------
----------------------
INITIAL GUESS ORBITALS
----------------------
                      0         1         2         3         4         5   
                 -18.99580 -18.99573 -10.09299  -1.11277  -1.08880  -0.56700
                   2.00000   2.00000   2.00000   2.00000   2.00000   2.00000
                  --------  --------  --------  --------  --------  --------
  0C   1s         0.000014  0.000876  0.987345  0.187770  0.000021 -0.166231
  0C   2s        -0.000006 -0.000405  0.054753 -0.360764 -0.000040  0.377081
  0C   3s         0.000187  0.011769 -0.003171 -0.018221 -0.000002  0.041742
  0C   1pz        0.000000  0.000000 -0.000000  0.000000  0.000000 -0.000000
  0C   1px        0.000582 -0.000009 -0.000000  0.000040 -0.334109 -0.000008
  0C   1py        0.000000  0.000000 -0.000000  0.000000  0.000000 -0.000000
  0C   2pz       -0.000000 -0.000000 -0.000000  0.000000 -0.000000  0.000000
  0C   2px       -0.026086  0.000414 -0.000000  0.000009 -0.070320  0.000001
  0C   2py       -0.000000 -0.000000 -0.000000  0.000000  0.000000  0.000000
  0C   1dz2       0.000041  0.002575 -0.003906  0.021111  0.000002 -0.005721
  0C   1dxz      -0.000000  0.000000 -0.000000  0.000000  0.000000 -0.000000
  0C   1dyz       0.000000 -0.000000 -0.000000 -0.000000 -0.000000 -0.000000
  0C   1dx2y2    -0.000071 -0.004460  0.006766 -0.036566 -0.000004  0.009908
  0C   1dxy      -0.000000  0.000000  0.000000 -0.000000  0.000000 -0.000000
  1O   1s         0.687588 -0.709801 -0.000010 -0.185392 -0.198690 -0.117950
  1O   2s        -0.032011  0.031585 -0.001589 -0.378653 -0.418368 -0.254738
  1O   3s         0.034211 -0.018305 -0.011201 -0.162327 -0.110903 -0.249908
  1O   1pz       -0.000000  0.000000 -0.000000 -0.000000 -0.000000  0.000000
  1O   1px        0.001692 -0.003280  0.002679  0.135983  0.143429 -0.362804
  1O   1py       -0.000000  0.000000 -0.000000 -0.000000 -0.000000  0.000000
  1O   2pz        0.000000  0.000000 -0.000000 -0.000000  0.000000  0.000000
  1O   2px       -0.006205  0.003832  0.009591  0.016905 -0.005023 -0.165240
  1O   2py        0.000000  0.000000 -0.000000 -0.000000  0.000000  0.000000
  1O   1dz2       0.000117 -0.000588  0.000847  0.006184  0.006206 -0.007886
  1O   1dxz      -0.000000 -0.000000  0.000000  0.000000  0.000000 -0.000000
  1O   1dyz      -0.000000  0.000000  0.000000  0.000000  0.000000  0.000000
  1O   1dx2y2    -0.000202  0.001018 -0.001467 -0.010711 -0.010748  0.013659
  1O   1dxy      -0.000000 -0.000000  0.000000  0.000000  0.000000 -0.000000
  2O   1s        -0.709754 -0.687637 -0.000010 -0.185438  0.198647 -0.117956
  2O   2s         0.032997  0.030554 -0.001589 -0.378749  0.418280 -0.254751
  2O   3s        -0.034775 -0.017211 -0.011201 -0.162349  0.110862 -0.249921
  2O   1pz        0.000000  0.000000 -0.000000 -0.000000  0.000000  0.000000
  2O   1px        0.001796  0.003224 -0.002679 -0.136018  0.143400  0.362827
  2O   1py        0.000000  0.000000 -0.000000 -0.000000  0.000000  0.000000
  2O   2pz       -0.000000  0.000000 -0.000000 -0.000000 -0.000000  0.000000
  2O   2px       -0.006324 -0.003633 -0.009592 -0.016903 -0.005028  0.165249
  2O   2py       -0.000000  0.000000 -0.000000 -0.000000 -0.000000  0.000000
  2O   1dz2      -0.000135 -0.000584  0.000847  0.006185 -0.006204 -0.007887
  2O   1dxz      -0.000000  0.000000 -0.000000 -0.000000  0.000000  0.000000
  2O   1dyz      -0.000000  0.000000  0.000000  0.000000 -0.000000  0.000000
  2O   1dx2y2     0.000235  0.001011 -0.001467 -0.010714  0.010746  0.013660
  2O   1dxy      -0.000000  0.000000 -0.000000 -0.000000  0.000000  0.000000
                      6         7         8         9        10        11   
                  -0.54214  -0.50607  -0.50607  -0.40224  -0.40224  -0.03474
                   2.00000   2.00000   2.00000   2.00000   2.00000   0.00000
                  --------  --------  --------  --------  --------  --------
  0C   1s         0.000005 -0.000000  0.000000  0.000000  0.000000  0.000000
  0C   2s        -0.000011  0.000000 -0.000000 -0.000000 -0.000000 -0.000000
  0C   3s        -0.000003  0.000000 -0.000000  0.000000  0.000000 -0.000000
  0C   1pz       -0.000000 -0.329660 -0.164781  0.000000 -0.000004  0.087162
  0C   1px       -0.332798 -0.000000  0.000000  0.000000  0.000000 -0.000000
  0C   1py       -0.000000  0.164781 -0.329660 -0.000004 -0.000000 -0.653137
  0C   2pz       -0.000000 -0.110100 -0.055034  0.000000 -0.000002  0.075189
  0C   2px        0.023098 -0.000000  0.000000 -0.000000 -0.000000 -0.000000
  0C   2py       -0.000000  0.055034 -0.110100 -0.000002 -0.000000 -0.563420
  0C   1dz2       0.000000  0.000000  0.000000 -0.000000  0.000000 -0.000000
  0C   1dxz       0.000000  0.000001  0.000001  0.006053 -0.057022  0.000000
  0C   1dyz       0.000000  0.000000  0.000000  0.000000 -0.000000 -0.000000
  0C   1dx2y2    -0.000000  0.000000 -0.000000  0.000000 -0.000000  0.000000
  0C   1dxy       0.000000 -0.000001  0.000001 -0.057022 -0.006053 -0.000000
  1O   1s         0.095024 -0.000000  0.000000 -0.000000 -0.000000  0.000000
  1O   2s         0.200898 -0.000000  0.000000 -0.000000 -0.000000  0.000000
  1O   3s         0.222641  0.000000 -0.000000  0.000000  0.000000  0.000000
  1O   1pz       -0.000000 -0.352309 -0.176102  0.052248 -0.492174 -0.048504
  1O   1px        0.412073  0.000000 -0.000000 -0.000000 -0.000000 -0.000000
  1O   1py       -0.000000  0.176102 -0.352309 -0.492174 -0.052248  0.363458
  1O   2pz       -0.000000 -0.178603 -0.089275  0.031792 -0.299477 -0.044971
  1O   2px        0.171390  0.000000 -0.000000 -0.000000 -0.000000 -0.000000
  1O   2py       -0.000000  0.089275 -0.178603 -0.299477 -0.031792  0.336989
  1O   1dz2       0.007699 -0.000000 -0.000000  0.000000 -0.000000 -0.000000
  1O   1dxz       0.000000  0.020294  0.010144 -0.001425  0.013420 -0.002585
  1O   1dyz      -0.000000 -0.000000 -0.000000 -0.000000 -0.000000 -0.000000
  1O   1dx2y2    -0.013335 -0.000000  0.000000  0.000000  0.000000  0.000000
  1O   1dxy       0.000000 -0.010144  0.020294  0.013420  0.001425  0.019373
  2O   1s        -0.095018 -0.000000  0.000000  0.000000  0.000000  0.000000
  2O   2s        -0.200884 -0.000000  0.000000  0.000000  0.000000  0.000000
  2O   3s        -0.222628  0.000000 -0.000000 -0.000000 -0.000000  0.000000
  2O   1pz        0.000000 -0.352322 -0.176109 -0.052247  0.492161 -0.048504
  2O   1px        0.412054 -0.000000  0.000000 -0.000000 -0.000000  0.000000
  2O   1py        0.000000  0.176109 -0.352322  0.492161  0.052247  0.363460
  2O   2pz        0.000000 -0.178609 -0.089278 -0.031791  0.299469 -0.044972
  2O   2px        0.171380 -0.000000  0.000000 -0.000000 -0.000000  0.000000
  2O   2py        0.000000  0.089278 -0.178609  0.299469  0.031791  0.336992
  2O   1dz2      -0.007699 -0.000000 -0.000000 -0.000000  0.000000 -0.000000
  2O   1dxz       0.000000 -0.020294 -0.010144 -0.001425  0.013420  0.002585
  2O   1dyz       0.000000 -0.000000 -0.000000  0.000000  0.000000 -0.000000
  2O   1dx2y2     0.013334 -0.000000  0.000000 -0.000000 -0.000000  0.000000
  2O   1dxy       0.000000  0.010144 -0.020294  0.013420  0.001425 -0.019373
                     12        13        14        15        16        17   
                  -0.03474   0.01392   0.29972   0.38394   0.38394   0.39704
                   0.00000   0.00000   0.00000   0.00000   0.00000   0.00000
                  --------  --------  --------  --------  --------  --------
  0C   1s        -0.000000  0.108776  0.000002 -0.000000  0.000000 -0.336459
  0C   2s         0.000000 -0.192091 -0.000001  0.000000 -0.000000  1.684402
  0C   3s         0.000000 -1.761592  0.000017 -0.000000  0.000000 -1.608206
  0C   1pz        0.653137  0.000000 -0.000000  0.714922  0.522332 -0.000000
  0C   1px        0.000000 -0.000004 -0.041387  0.000000 -0.000000  0.000019
  0C   1py        0.087162  0.000000  0.000000  0.522332 -0.714922 -0.000000
  0C   2pz        0.563420  0.000000  0.000000 -1.008803 -0.737045  0.000000
  0C   2px        0.000000  0.000001 -3.509032  0.000000 -0.000000 -0.000020
  0C   2py        0.075189  0.000000 -0.000000 -0.737045  1.008803  0.000000
  0C   1dz2       0.000000 -0.032392 -0.000000  0.000000 -0.000000  0.076101
  0C   1dxz       0.000000  0.000000  0.000000 -0.000000 -0.000000 -0.000000
  0C   1dyz       0.000000 -0.000000 -0.000000 -0.000000 -0.000000 -0.000000
  0C   1dx2y2    -0.000000  0.056105  0.000001 -0.000000  0.000000 -0.131811
  0C   1dxy       0.000000 -0.000000  0.000000 -0.000000  0.000000 -0.000000
  1O   1s        -0.000000  0.101176  0.090230 -0.000000  0.000000 -0.037631
  1O   2s        -0.000000  0.246282  0.127816 -0.000000  0.000000 -0.139514
  1O   3s        -0.000000  0.649947  2.297542  0.000000 -0.000000  0.321064
  1O   1pz       -0.363458 -0.000000  0.000000  0.079304  0.057941 -0.000000
  1O   1px        0.000000 -0.263721  0.102726  0.000000 -0.000000  0.344829
  1O   1py       -0.048504 -0.000000  0.000000  0.057941 -0.079304 -0.000000
  1O   2pz       -0.336989 -0.000000  0.000000  0.100801  0.073647 -0.000000
  1O   2px        0.000000 -0.339244 -0.560656  0.000000 -0.000000  0.053196
  1O   2py       -0.044971 -0.000000  0.000000  0.073647 -0.100801 -0.000000
  1O   1dz2       0.000000 -0.003722 -0.013443 -0.000000  0.000000 -0.031483
  1O   1dxz      -0.019373 -0.000000 -0.000000 -0.025338 -0.018512  0.000000
  1O   1dyz       0.000000 -0.000000 -0.000000  0.000000  0.000000 -0.000000
  1O   1dx2y2    -0.000000  0.006446  0.023284  0.000000 -0.000000  0.054530
  1O   1dxy      -0.002585 -0.000000 -0.000000 -0.018512  0.025338  0.000000
  2O   1s        -0.000000  0.101175 -0.090229 -0.000000  0.000000 -0.037630
  2O   2s        -0.000000  0.246281 -0.127812 -0.000000  0.000000 -0.139510
  2O   3s        -0.000000  0.649950 -2.297562  0.000000 -0.000000  0.321049
  2O   1pz       -0.363460 -0.000000 -0.000000  0.079304  0.057940 -0.000000
  2O   1px       -0.000000  0.263716  0.102732 -0.000000  0.000000 -0.344819
  2O   1py       -0.048504 -0.000000 -0.000000  0.057940 -0.079304 -0.000000
  2O   2pz       -0.336992 -0.000000 -0.000000  0.100799  0.073645 -0.000000
  2O   2px       -0.000000  0.339238 -0.560652 -0.000000  0.000000 -0.053189
  2O   2py       -0.044972 -0.000000 -0.000000  0.073645 -0.100799 -0.000000
  2O   1dz2       0.000000 -0.003722  0.013444 -0.000000  0.000000 -0.031482
  2O   1dxz       0.019373  0.000000 -0.000000  0.025339  0.018513 -0.000000
  2O   1dyz       0.000000 -0.000000 -0.000000  0.000000  0.000000 -0.000000
  2O   1dx2y2    -0.000000  0.006447 -0.023285  0.000000 -0.000000  0.054528
  2O   1dxy       0.002585  0.000000 -0.000000  0.018513 -0.025339 -0.000000
                     18        19        20        21        22        23   
                   0.66427   0.69496   0.78894   0.78894   0.93790   0.97845
                   0.00000   0.00000   0.00000   0.00000   0.00000   0.00000
                  --------  --------  --------  --------  --------  --------
  0C   1s         0.000008  0.094328 -0.000000 -0.000000  0.000003  0.000000
  0C   2s        -0.000071 -1.312912  0.000000  0.000000 -0.000010 -0.000000
  0C   3s        -0.000005 -0.432208 -0.000000 -0.000000  0.000014 -0.000000
  0C   1pz       -0.000000  0.000000  0.000001  0.000001 -0.000000 -0.023803
  0C   1px        1.171783 -0.000032  0.000000 -0.000000  0.625366  0.000000
  0C   1py       -0.000000  0.000000 -0.000001  0.000001 -0.000000  0.053654
  0C   2pz       -0.000000  0.000000 -0.000003 -0.000004  0.000000  0.418870
  0C   2px       -0.150959  0.000007 -0.000000  0.000000  0.729729 -0.000000
  0C   2py        0.000000  0.000000  0.000004 -0.000003  0.000000 -0.944165
  0C   1dz2       0.000001  0.102039  0.000000 -0.000000 -0.000002  0.000000
  0C   1dxz       0.000000  0.000000  0.066237  0.100572  0.000000 -0.000001
  0C   1dyz       0.000000 -0.000000 -0.000000 -0.000000 -0.000000  0.000000
  0C   1dx2y2    -0.000001 -0.176737 -0.000000  0.000000  0.000004 -0.000000
  0C   1dxy       0.000000 -0.000000 -0.100572  0.066237  0.000000  0.000002
  1O   1s        -0.104301  0.099284  0.000000 -0.000000 -0.032253 -0.000000
  1O   2s        -0.343728  0.370031  0.000000 -0.000000 -0.063119 -0.000000
  1O   3s        -0.209489  0.285606 -0.000000  0.000000 -0.667587  0.000000
  1O   1pz        0.000000 -0.000000  0.349454  0.530597 -0.000000  0.259483
  1O   1px        0.012791  0.435843  0.000000 -0.000000  0.740185 -0.000000
  1O   1py        0.000000 -0.000000 -0.530597  0.349454 -0.000000 -0.584893
  1O   2pz       -0.000000  0.000000 -0.450939 -0.684688 -0.000000 -0.466541
  1O   2px        0.891895 -1.159633  0.000000 -0.000000 -0.489284 -0.000000
  1O   2py       -0.000000  0.000000  0.684688 -0.450939 -0.000000  1.051620
  1O   1dz2      -0.043045 -0.004401 -0.000000  0.000000 -0.017380  0.000000
  1O   1dxz      -0.000000 -0.000000 -0.006952 -0.010555 -0.000000 -0.019609
  1O   1dyz       0.000000 -0.000000  0.000000  0.000000  0.000000  0.000000
  1O   1dx2y2     0.074557  0.007622  0.000000 -0.000000  0.030104  0.000000
  1O   1dxy      -0.000000 -0.000000  0.010555 -0.006952 -0.000000  0.044201
  2O   1s         0.104308  0.099277 -0.000000  0.000000  0.032255 -0.000000
  2O   2s         0.343752  0.370004 -0.000000  0.000000  0.063133 -0.000000
  2O   3s         0.209522  0.285615  0.000000 -0.000000  0.667568  0.000000
  2O   1pz       -0.000000 -0.000000 -0.349454 -0.530597  0.000000  0.259482
  2O   1px        0.012778 -0.435843  0.000000 -0.000000  0.740188  0.000000
  2O   1py       -0.000000 -0.000000  0.530597 -0.349454  0.000000 -0.584891
  2O   2pz        0.000000  0.000000  0.450942  0.684692  0.000000 -0.466542
  2O   2px        0.891976  1.159591  0.000000 -0.000000 -0.489289  0.000000
  2O   2py        0.000000  0.000000 -0.684692  0.450942  0.000000  1.051622
  2O   1dz2       0.043046 -0.004404  0.000000 -0.000000  0.017382  0.000000
  2O   1dxz      -0.000000  0.000000 -0.006952 -0.010555 -0.000000  0.019609
  2O   1dyz       0.000000 -0.000000 -0.000000 -0.000000 -0.000000  0.000000
  2O   1dx2y2    -0.074559  0.007627 -0.000000  0.000000 -0.030106  0.000000
  2O   1dxy      -0.000000  0.000000  0.010555 -0.006952 -0.000000 -0.044201
                     24        25        26        27        28        29   
                   0.97845   1.14139   1.46028   1.47926   1.47926   1.47973
                   0.00000   0.00000   0.00000   0.00000   0.00000   0.00000
                  --------  --------  --------  --------  --------  --------
  0C   1s        -0.000000 -0.089205  0.000000 -0.000000 -0.000000 -0.000000
  0C   2s         0.000000  1.468722  0.000008  0.000000  0.000000  0.000000
  0C   3s         0.000000  2.611918  0.000006  0.000000  0.000000  0.000000
  0C   1pz       -0.053654 -0.000000  0.000000  0.000000  0.000000 -0.000000
  0C   1px       -0.000000 -0.000004 -0.476022  0.000000 -0.000000  0.000000
  0C   1py       -0.023803 -0.000000 -0.000000 -0.000000  0.000000  0.000000
  0C   2pz        0.944165 -0.000000 -0.000000 -0.000001 -0.000001  0.000000
  0C   2px       -0.000000 -0.000012 -4.376514  0.000000 -0.000000  0.000000
  0C   2py        0.418870 -0.000000  0.000000  0.000001 -0.000001 -0.000000
  0C   1dz2      -0.000000 -0.174821  0.000002 -0.000000 -0.000000 -0.818529
  0C   1dxz      -0.000002 -0.000000 -0.000000  0.511656  0.653236 -0.000000
  0C   1dyz       0.000000  0.000000 -0.000000 -0.000000 -0.000000  0.000000
  0C   1dx2y2     0.000000  0.302798 -0.000003 -0.000000 -0.000000 -0.472578
  0C   1dxy      -0.000001  0.000000 -0.000000 -0.653236  0.511656  0.000000
  1O   1s         0.000000  0.175023 -0.225725 -0.000000  0.000000  0.000000
  1O   2s         0.000000  1.273189 -1.705923  0.000000 -0.000000  0.000000
  1O   3s        -0.000000 -3.001322  5.049332 -0.000000  0.000000 -0.000000
  1O   1pz        0.584893 -0.000000 -0.000000 -0.112357 -0.143448  0.000000
  1O   1px        0.000000  0.026377  0.085583  0.000000 -0.000000 -0.000000
  1O   1py        0.259483 -0.000000 -0.000000  0.143448 -0.112357 -0.000000
  1O   2pz       -1.051620  0.000000  0.000000 -0.075699 -0.096645 -0.000000
  1O   2px        0.000000  1.210165 -1.180264  0.000000 -0.000000  0.000000
  1O   2py       -0.466541  0.000000  0.000000  0.096645 -0.075699  0.000000
  1O   1dz2       0.000000 -0.013749  0.041138  0.000000  0.000000 -0.138030
  1O   1dxz      -0.044201  0.000000  0.000000 -0.154507 -0.197261 -0.000000
  1O   1dyz       0.000000  0.000000 -0.000000  0.000000  0.000000  0.000000
  1O   1dx2y2    -0.000000  0.023813 -0.071253  0.000000 -0.000000 -0.079691
  1O   1dxy      -0.019609  0.000000  0.000000  0.197261 -0.154507  0.000000
  2O   1s         0.000000  0.175024  0.225725  0.000000 -0.000000 -0.000000
  2O   2s         0.000000  1.273195  1.705920 -0.000000  0.000000 -0.000000
  2O   3s        -0.000000 -3.001363 -5.049344  0.000000 -0.000000  0.000000
  2O   1pz        0.584891 -0.000000  0.000000  0.112361  0.143453  0.000000
  2O   1px       -0.000000 -0.026387  0.085576  0.000000 -0.000000 -0.000000
  2O   1py        0.259482 -0.000000  0.000000 -0.143453  0.112361 -0.000000
  2O   2pz       -1.051622  0.000000 -0.000000  0.075697  0.096643 -0.000000
  2O   2px       -0.000000 -1.210168 -1.180246  0.000000 -0.000000  0.000000
  2O   2py       -0.466542  0.000000 -0.000000 -0.096643  0.075697  0.000000
  2O   1dz2       0.000000 -0.013748 -0.041138 -0.000000 -0.000000 -0.138032
  2O   1dxz       0.044201 -0.000000  0.000000 -0.154506 -0.197259  0.000000
  2O   1dyz       0.000000  0.000000 -0.000000 -0.000000 -0.000000  0.000000
  2O   1dx2y2    -0.000000  0.023812  0.071253 -0.000000  0.000000 -0.079693
  2O   1dxy       0.019609 -0.000000  0.000000  0.197259 -0.154506 -0.000000
                     30        31        32        33        34        35   
                   1.47977   2.38713   2.38778   2.51308   2.51369   2.60086
                   0.00000   0.00000   0.00000   0.00000   0.00000   0.00000
                  --------  --------  --------  --------  --------  --------
  0C   1s         0.000000 -0.000000 -0.000000 -0.000000  0.000000  0.000000
  0C   2s        -0.000000  0.000000  0.000000  0.000000 -0.000000  0.000000
  0C   3s        -0.000000 -0.000000 -0.000000 -0.000000  0.000000  0.000000
  0C   1pz        0.000000  0.000000 -0.000000  0.000000 -0.000000 -0.033182
  0C   1px       -0.000000 -0.000000 -0.000000 -0.000000  0.000000  0.000000
  0C   1py        0.000000  0.000000  0.000000  0.000000  0.000000  0.336387
  0C   2pz       -0.000000 -0.000000  0.000000  0.000000 -0.000000 -0.020561
  0C   2px       -0.000000 -0.000000 -0.000000 -0.000000  0.000000 -0.000000
  0C   2py       -0.000000  0.000000 -0.000000  0.000000  0.000000  0.208438
  0C   1dz2       0.000000 -0.000000 -0.000003 -0.000000 -0.305178  0.000000
  0C   1dxz       0.000000  0.000000 -0.000000  0.000000 -0.000000 -0.000000
  0C   1dyz       0.945094  0.000003  0.000000  0.352554 -0.000000 -0.000000
  0C   1dx2y2     0.000000 -0.000000 -0.000001 -0.000000 -0.176194 -0.000000
  0C   1dxy      -0.000000  0.000000  0.000000  0.000000  0.000000  0.000001
  1O   1s        -0.000000 -0.000000 -0.000000  0.000000  0.000000  0.000000
  1O   2s        -0.000000 -0.000000 -0.000000  0.000000  0.000000  0.000000
  1O   3s         0.000000  0.000000  0.000000  0.000000 -0.000000 -0.000000
  1O   1pz       -0.000000  0.000000 -0.000000  0.000000 -0.000000 -0.008147
  1O   1px        0.000000  0.000000 -0.000000  0.000000  0.000000 -0.000000
  1O   1py       -0.000000  0.000000  0.000000  0.000000  0.000000  0.082587
  1O   2pz        0.000000 -0.000000  0.000000 -0.000000  0.000000  0.024686
  1O   2px       -0.000000 -0.000000 -0.000000 -0.000000  0.000000  0.000000
  1O   2py        0.000000 -0.000000 -0.000000 -0.000000 -0.000000 -0.250254
  1O   1dz2       0.000000 -0.000000 -0.612377  0.000000  0.602082 -0.000000
  1O   1dxz       0.000000  0.000000 -0.000000  0.000000 -0.000000 -0.072275
  1O   1dyz       0.159505  0.707112 -0.000000 -0.695197  0.000000  0.000000
  1O   1dx2y2     0.000000 -0.000000 -0.353556  0.000000  0.347612 -0.000000
  1O   1dxy       0.000000  0.000000  0.000000  0.000000  0.000000  0.732691
  2O   1s         0.000000  0.000000  0.000000  0.000000 -0.000000  0.000000
  2O   2s         0.000000  0.000000  0.000000  0.000000 -0.000000  0.000000
  2O   3s        -0.000000 -0.000000 -0.000000 -0.000000  0.000000 -0.000000
  2O   1pz       -0.000000 -0.000000  0.000000  0.000000 -0.000000 -0.008147
  2O   1px        0.000000  0.000000  0.000000  0.000000 -0.000000  0.000000
  2O   1py       -0.000000 -0.000000 -0.000000  0.000000  0.000000  0.082588
  2O   2pz        0.000000  0.000000 -0.000000 -0.000000  0.000000  0.024686
  2O   2px       -0.000000 -0.000000 -0.000000 -0.000000  0.000000 -0.000000
  2O   2py        0.000000  0.000000  0.000000 -0.000000 -0.000000 -0.250256
  2O   1dz2       0.000000  0.000000  0.612374  0.000000  0.602085 -0.000000
  2O   1dxz      -0.000000  0.000000 -0.000000 -0.000000  0.000000  0.072274
  2O   1dyz       0.159508 -0.707108  0.000000 -0.695200  0.000000  0.000000
  2O   1dx2y2     0.000000  0.000000  0.353554  0.000000  0.347614 -0.000000
  2O   1dxy      -0.000000  0.000000  0.000000 -0.000000 -0.000000 -0.732687
                     36        37        38        39        40        41   
                   2.60086   2.69764   3.36367   3.39259   3.39259   3.67139
                   0.00000   0.00000   0.00000   0.00000   0.00000   0.00000
                  --------  --------  --------  --------  --------  --------
  0C   1s        -0.000000 -0.018175 -0.000002 -0.000000 -0.000000  0.295418
  0C   2s        -0.000000 -0.731026 -0.000013  0.000000  0.000000 -2.309858
  0C   3s        -0.000000 -0.406308 -0.000001  0.000000  0.000000 -1.000209
  0C   1pz       -0.336387  0.000000 -0.000000  0.000004  0.000005  0.000000
  0C   1px       -0.000000 -0.000012  1.307372 -0.000000  0.000000  0.000025
  0C   1py       -0.033182  0.000000 -0.000000 -0.000005  0.000004  0.000000
  0C   2pz       -0.208438  0.000000  0.000000  0.000001  0.000001  0.000000
  0C   2px        0.000000  0.000006  1.088164 -0.000000  0.000000 -0.000001
  0C   2py       -0.020561  0.000000 -0.000000 -0.000001  0.000001  0.000000
  0C   1dz2      -0.000000 -0.488472 -0.000007 -0.000000 -0.000000  0.737388
  0C   1dxz      -0.000001  0.000000  0.000000 -0.636034 -0.733633 -0.000000
  0C   1dyz       0.000000  0.000000 -0.000000 -0.000000 -0.000000  0.000000
  0C   1dx2y2     0.000000  0.846059  0.000013  0.000000  0.000000 -1.277193
  0C   1dxy      -0.000000  0.000000  0.000000  0.733633 -0.636034  0.000000
  1O   1s        -0.000000 -0.119940  0.018350  0.000000 -0.000000  0.074283
  1O   2s        -0.000000 -0.851905  0.360498 -0.000000  0.000000  0.265576
  1O   3s         0.000000  0.924559 -1.758559  0.000000 -0.000000  1.373270
  1O   1pz       -0.082587  0.000000 -0.000000  0.059478  0.068604  0.000000
  1O   1px        0.000000  0.518347  0.095436 -0.000000  0.000000 -0.572258
  1O   1py       -0.008147  0.000000 -0.000000 -0.068604  0.059478  0.000000
  1O   2pz        0.250254 -0.000000 -0.000000  0.153586  0.177154  0.000000
  1O   2px       -0.000000 -0.627974  0.848094 -0.000000  0.000000 -0.872586
  1O   2py        0.024686 -0.000000 -0.000000 -0.177154  0.153586  0.000000
  1O   1dz2      -0.000000 -0.167731  0.422551 -0.000000  0.000000 -0.468661
  1O   1dxz      -0.732691  0.000000  0.000000 -0.518229 -0.597750 -0.000000
  1O   1dyz      -0.000000 -0.000000 -0.000000  0.000000  0.000000  0.000000
  1O   1dx2y2     0.000000  0.290518 -0.731880  0.000000 -0.000000  0.811745
  1O   1dxy      -0.072275  0.000000  0.000000  0.597750 -0.518229 -0.000000
  2O   1s        -0.000000 -0.119941 -0.018352 -0.000000  0.000000  0.074285
  2O   2s        -0.000000 -0.851921 -0.360506  0.000000 -0.000000  0.265596
  2O   3s         0.000000  0.924577  1.758574 -0.000000  0.000000  1.373286
  2O   1pz       -0.082588  0.000000  0.000000 -0.059480 -0.068607  0.000000
  2O   1px       -0.000000 -0.518354  0.095430 -0.000000  0.000000  0.572274
  2O   1py       -0.008147  0.000000  0.000000  0.068607 -0.059480  0.000000
  2O   2pz        0.250256 -0.000000  0.000000 -0.153589 -0.177157  0.000000
  2O   2px        0.000000  0.627978  0.848099 -0.000000  0.000000  0.872598
  2O   2py        0.024686 -0.000000  0.000000  0.177157 -0.153589  0.000000
  2O   1dz2      -0.000000 -0.167727 -0.422550  0.000000 -0.000000 -0.468667
  2O   1dxz       0.732687 -0.000000  0.000000 -0.518235 -0.597758  0.000000
  2O   1dyz      -0.000000 -0.000000  0.000000 -0.000000 -0.000000 -0.000000
  2O   1dx2y2     0.000000  0.290511  0.731878 -0.000000  0.000000  0.811755
  2O   1dxy       0.072274 -0.000000  0.000000  0.597758 -0.518235  0.000000
             **** ENERGY FILE WAS UPDATED (co2_opt.en.tmp) ****
Finished Guess after   0.1 sec
Maximum memory used throughout the entire GUESS-calculation: 5.8 MB

-------------------------------------------------------------------------------------------
                                      ORCA LEAN-SCF
                              memory conserving SCF solver
-------------------------------------------------------------------------------------------

----------------------------------------D-I-I-S--------------------------------------------
Iteration    Energy (Eh)           Delta-E    RMSDP     MaxDP     DIISErr   Damp  Time(sec)
-------------------------------------------------------------------------------------------
               ***  Starting incremental Fock matrix formation  ***
    1    -188.2471170023000866     0.00e+00  8.63e-03  8.39e-02  2.09e-01  0.700   0.2

                         ----------------------------
                         !        ITERATION     0   !
                         ----------------------------
   Total Energy        :    -188.247117002300 Eh
   Energy Change       :     188.247117002300 Eh
   MAX-DP              :       0.083890727885
   RMS-DP              :       0.008630329198
   Actual Damping      :       0.7000
   Actual Level Shift  :       0.2500 Eh
   alpha HOMO          :      -0.2638 Eh
   alpha LUMO          :       0.3097 Eh
   Int. Num. El.       :    21.99999823 (UP=   10.99999911 DN=   10.99999911)
   Exchange            :   -17.49992256 Eh
   Correlation         :    -0.93798908 Eh
   DIIS-Error          :       0.208830407460

    2    -188.3051031258339947    -5.80e-02  4.31e-03  3.78e-02  8.36e-02  0.700   0.1

                         ----------------------------
                         !        ITERATION     1   !
                         ----------------------------
   Total Energy        :    -188.305103125834 Eh
   Energy Change       :       0.057986123534 Eh
   MAX-DP              :       0.037795347381
   RMS-DP              :       0.004306069683
   Actual Damping      :       0.7000
   Actual Level Shift  :       0.2500 Eh
   alpha HOMO          :      -0.3260 Eh
   alpha LUMO          :       0.3018 Eh
   Int. Num. El.       :    21.99999786 (UP=   10.99999893 DN=   10.99999893)
   Exchange            :   -17.33423359 Eh
   Correlation         :    -0.93374073 Eh
   DIIS-Error          :       0.083640794194

                               ***Turning on AO-DIIS***
    3    -188.3217407259492404    -1.66e-02  1.10e-03  9.30e-03  1.85e-02  0.700   0.1

                         ----------------------------
                         !        ITERATION     2   !
                         ----------------------------
   Total Energy        :    -188.321740725949 Eh
   Energy Change       :       0.016637600115 Eh
   MAX-DP              :       0.009303837579
   RMS-DP              :       0.001104231581
   Actual Damping      :       0.7000
   Actual Level Shift  :       0.2500 Eh
   alpha HOMO          :      -0.3646 Eh
   alpha LUMO          :       0.2923 Eh
   Int. Num. El.       :    21.99999751 (UP=   10.99999876 DN=   10.99999876)
   Exchange            :   -17.24847939 Eh
   Correlation         :    -0.93141871 Eh
   DIIS-Error          :       0.018498224278
   DIIS coefficients:
     -0.01340  -0.10502   1.11841

    4    -188.3331163901416971    -1.14e-02  1.73e-03  2.30e-02  1.21e-02  0.000   0.1

                         ----------------------------
                         !        ITERATION     3   !
                         ----------------------------
   Total Energy        :    -188.333116390142 Eh
   Energy Change       :       0.011375664192 Eh
   MAX-DP              :       0.022955078658
   RMS-DP              :       0.001730083323
   Actual Damping      :       0.0000
   Actual Level Shift  :       0.2500 Eh
   alpha HOMO          :      -0.3690 Eh
   alpha LUMO          :       0.2882 Eh
   Int. Num. El.       :    21.99999735 (UP=   10.99999868 DN=   10.99999868)
   Exchange            :   -17.22769746 Eh
   Correlation         :    -0.93077365 Eh
   DIIS-Error          :       0.012108449251
   DIIS coefficients:
      0.03861   0.05365  -0.93009   1.83783

    5    -188.3603033713116872    -2.72e-02  4.71e-04  3.50e-03  5.79e-03  0.000   0.1

                         ----------------------------
                         !        ITERATION     4   !
                         ----------------------------
   Total Energy        :    -188.360303371312 Eh
   Energy Change       :       0.027186981170 Eh
   MAX-DP              :       0.003496531762
   RMS-DP              :       0.000471020188
   Actual Damping      :       0.0000
   Actual Level Shift  :       0.2500 Eh
   alpha HOMO          :      -0.3708 Eh
   alpha LUMO          :       0.2855 Eh
   Int. Num. El.       :    21.99999716 (UP=   10.99999858 DN=   10.99999858)
   Exchange            :   -17.21134944 Eh
   Correlation         :    -0.93012350 Eh
   DIIS-Error          :       0.005792762025
   DIIS coefficients:
      0.00248   0.01861   0.14820  -0.04835   0.87905

                              *** Initializing SOSCF ***
---------------------------------------S-O-S-C-F--------------------------------------
Iteration    Energy (Eh)           Delta-E    RMSDP     MaxDP     MaxGrad    Time(sec)
--------------------------------------------------------------------------------------
    6    -188.3603998529765704    -9.65e-05  1.10e-04  1.17e-03  7.75e-04     0.1

                         ----------------------------
                         !        ITERATION     5   !
                         ----------------------------
   Total Energy        :    -188.360399852977 Eh
   Energy Change       :       0.000096481665 Eh
   MAX-DP              :       0.001166838137
   RMS-DP              :       0.000110103777
   Orbital gradient    :       0.000774623495
   Orbital Rotation    :       0.000774623495
   alpha HOMO          :      -0.3706 Eh
   alpha LUMO          :       0.0357 Eh
   Int. Num. El.       :    21.99999724 (UP=   10.99999862 DN=   10.99999862)
   Exchange            :   -17.21984452 Eh
   Correlation         :    -0.93038152 Eh

               *** Restarting incremental Fock matrix formation ***
    7    -188.3604191178951339    -1.93e-05  4.12e-05  3.47e-04  1.27e-04     0.1

                         ----------------------------
                         !        ITERATION     6   !
                         ----------------------------
   Total Energy        :    -188.360419117895 Eh
   Energy Change       :       0.000019264919 Eh
   MAX-DP              :       0.000347432365
   RMS-DP              :       0.000041245862
   Orbital gradient    :       0.000127417612
   Orbital Rotation    :       0.000230349864
   alpha HOMO          :      -0.3706 Eh
   alpha LUMO          :       0.0357 Eh
   Int. Num. El.       :    21.99999726 (UP=   10.99999863 DN=   10.99999863)
   Exchange            :   -17.22047269 Eh
   Correlation         :    -0.93040044 Eh

    8    -188.3604192756605755    -1.58e-07  2.21e-05  3.29e-04  1.18e-04     0.1

                         ----------------------------
                         !        ITERATION     7   !
                         ----------------------------
   Total Energy        :    -188.360419275661 Eh
   Energy Change       :       0.000000157765 Eh
   MAX-DP              :       0.000328606831
   RMS-DP              :       0.000022098761
   Orbital gradient    :       0.000118486228
   Orbital Rotation    :       0.000078949802
   alpha HOMO          :      -0.3706 Eh
   alpha LUMO          :       0.0357 Eh
   Int. Num. El.       :    21.99999726 (UP=   10.99999863 DN=   10.99999863)
   Exchange            :   -17.22095709 Eh
   Correlation         :    -0.93041420 Eh

    9    -188.3604193355430141    -5.99e-08  1.45e-05  2.27e-04  6.86e-05     0.1

                         ----------------------------
                         !        ITERATION     8   !
                         ----------------------------
   Total Energy        :    -188.360419335543 Eh
   Energy Change       :       0.000000059882 Eh
   MAX-DP              :       0.000226783376
   RMS-DP              :       0.000014479685
   Orbital gradient    :       0.000068631641
   Orbital Rotation    :       0.000047531785
   alpha HOMO          :      -0.3706 Eh
   alpha LUMO          :       0.0357 Eh
   Int. Num. El.       :    21.99999727 (UP=   10.99999863 DN=   10.99999863)
   Exchange            :   -17.22068996 Eh
   Correlation         :    -0.93040731 Eh

   10    -188.3604193645927865    -2.90e-08  2.89e-06  3.25e-05  1.43e-05     0.1

                         ----------------------------
                         !        ITERATION     9   !
                         ----------------------------
   Total Energy        :    -188.360419364593 Eh
   Energy Change       :       0.000000029050 Eh
   MAX-DP              :       0.000032455876
   RMS-DP              :       0.000002894188
   Orbital gradient    :       0.000014339584
   Orbital Rotation    :       0.000010155862
   alpha HOMO          :      -0.3706 Eh
   alpha LUMO          :       0.0357 Eh
   Int. Num. El.       :    21.99999726 (UP=   10.99999863 DN=   10.99999863)
   Exchange            :   -17.22067996 Eh
   Correlation         :    -0.93040621 Eh

   11    -188.3604193660748081    -1.48e-09  9.79e-07  9.92e-06  6.66e-06     0.1
                 **** Energy Check signals convergence ****

                         ----------------------------
                         !        ITERATION    10   !
                         ----------------------------
   Total Energy        :    -188.360419366075 Eh
   Energy Change       :       0.000000001482 Eh
   MAX-DP              :       0.000009916988
   RMS-DP              :       0.000000978761
   Orbital gradient    :       0.000006661321
   Orbital Rotation    :       0.000003166631
   alpha HOMO          :      -0.3706 Eh
   alpha LUMO          :       0.0357 Eh
   Int. Num. El.       :    21.99999726 (UP=   10.99999863 DN=   10.99999863)
   Exchange            :   -17.22073019 Eh
   Correlation         :    -0.93040797 Eh


               *****************************************************
               *                     SUCCESS                       *
               *           SCF CONVERGED AFTER  11 CYCLES          *
               *****************************************************

Recomputing exchange energy using gridx3       ... done (    0.205 sec)
Old exchange energy                            :     -4.313669709 Eh
New exchange energy                            :     -4.313655955 Eh
Exchange energy change after final integration :      0.000013754 Eh
Total energy after final integration           :   -188.360405612 Eh
             **** ENERGY FILE WAS UPDATED (co2_opt.en.tmp) ****

----------------
TOTAL SCF ENERGY
----------------

Total Energy       :       -188.36040561218047 Eh           -5125.54721 eV

Components:
Nuclear Repulsion  :         58.38987274934330 Eh            1588.86921 eV
Electronic Energy  :       -246.75029211541812 Eh           -6714.41680 eV
One Electron Energy:       -372.68052073670384 Eh          -10141.15254 eV
Two Electron Energy:        125.93022862128572 Eh            3426.73573 eV

Virial components:
Potential Energy   :       -375.41819103463286 Eh          -10215.64833 eV
Kinetic Energy     :        187.05778542245238 Eh            5090.10112 eV
Virial Ratio       :          2.00696373148429

DFT components:
N(Alpha)           :       10.999998632096 electrons
N(Beta)            :       10.999998632096 electrons
N(Total)           :       21.999997264192 electrons
E(X)               :      -17.220730190163 Eh       
E(C)               :       -0.930407966679 Eh       
E(XC)              :      -18.151138156841 Eh       

---------------
SCF CONVERGENCE
---------------

  Last Energy change         ...    1.4820e-09  Tolerance :   1.0000e-08
  Last MAX-Density change    ...    9.9170e-06  Tolerance :   1.0000e-07
  Last RMS-Density change    ...    9.7876e-07  Tolerance :   5.0000e-09
  Last DIIS Error            ...    7.7462e-04  Tolerance :   5.0000e-07
  Last Orbital Gradient      ...    6.6613e-06  Tolerance :   1.0000e-05
  Last Orbital Rotation      ...    3.1666e-06  Tolerance :   1.0000e-05


----------------
ORBITAL ENERGIES
----------------

  NO   OCC          E(Eh)            E(eV) 
   0   2.0000     -19.213985      -522.8391 
   1   2.0000     -19.213918      -522.8373 
   2   2.0000     -10.375254      -282.3250 
   3   2.0000      -1.148621       -31.2556 
   4   2.0000      -1.109848       -30.2005 
   5   2.0000      -0.550372       -14.9764 
   6   2.0000      -0.517263       -14.0754 
   7   2.0000      -0.517263       -14.0754 
   8   2.0000      -0.514165       -13.9911 
   9   2.0000      -0.370250       -10.0750 
  10   2.0000      -0.370250       -10.0750 
  11   0.0000       0.035878         0.9763 
  12   0.0000       0.035878         0.9763 
  13   0.0000       0.062688         1.7058 
  14   0.0000       0.342118         9.3095 
  15   0.0000       0.416969        11.3463 
  16   0.0000       0.416969        11.3463 
  17   0.0000       0.469927        12.7874 
  18   0.0000       0.761713        20.7273 
  19   0.0000       0.806474        21.9453 
  20   0.0000       0.902105        24.5475 
  21   0.0000       0.902105        24.5475 
  22   0.0000       1.086636        29.5689 
  23   0.0000       1.093706        29.7613 
  24   0.0000       1.093706        29.7613 
  25   0.0000       1.233174        33.5564 
  26   0.0000       1.528252        41.5859 
  27   0.0000       1.528260        41.5861 
  28   0.0000       1.564564        42.5739 
  29   0.0000       1.577223        42.9184 
  30   0.0000       1.577223        42.9184 
  31   0.0000       2.548885        69.3587 
  32   0.0000       2.548944        69.3603 
  33   0.0000       2.670417        72.6657 
  34   0.0000       2.670473        72.6673 
  35   0.0000       2.768820        75.3434 
  36   0.0000       2.768820        75.3434 
  37   0.0000       2.840370        77.2904 
  38   0.0000       3.541471        96.3683 
  39   0.0000       3.549970        96.5996 
  40   0.0000       3.549970        96.5996 
  41   0.0000       3.846556       104.6701 
------------------
MOLECULAR ORBITALS (RHF, ROHF)
------------------
                      0         1         2         3         4         5   
                 -19.21399 -19.21392 -10.37525  -1.14862  -1.10985  -0.55037
                   2.00000   2.00000   2.00000   2.00000   2.00000   2.00000
                  --------  --------  --------  --------  --------  --------
  0C   1s        -0.000033 -0.000852 -0.988085  0.200242  0.000006  0.171772
  0C   2s         0.000016  0.000415 -0.050934 -0.390898 -0.000012 -0.406705
  0C   3s        -0.000439 -0.011282  0.003358 -0.029516 -0.000001 -0.063953
  0C   1pz        0.000000 -0.000000  0.000000  0.000000 -0.000000 -0.000000
  0C   1px        0.000588 -0.000023  0.000000  0.000013 -0.351618 -0.000007
  0C   1py       -0.000000 -0.000000  0.000000  0.000000  0.000000  0.000000
  0C   2pz        0.000000  0.000000  0.000000  0.000000 -0.000000 -0.000000
  0C   2px       -0.024905  0.000970  0.000000  0.000003 -0.068490  0.000000
  0C   2py        0.000000  0.000000  0.000000  0.000000  0.000000 -0.000000
  0C   1dz2      -0.000099 -0.002549  0.003393  0.021109  0.000001  0.002582
  0C   1dxz      -0.000000  0.000000  0.000000 -0.000000  0.000000  0.000000
  0C   1dyz      -0.000000 -0.000000  0.000000  0.000000  0.000000  0.000000
  0C   1dx2y2     0.000172  0.004415 -0.005877 -0.036563 -0.000001 -0.004472
  0C   1dxy      -0.000000 -0.000000 -0.000000  0.000000  0.000000 -0.000000
  1O   1s         0.725608  0.671247 -0.000101 -0.175716 -0.192464  0.124079
  1O   2s        -0.032773 -0.029057  0.001294 -0.345721 -0.390546  0.259779
  1O   3s         0.033589  0.015688  0.009947 -0.165931 -0.129980  0.286678
  1O   1pz       -0.000000 -0.000000  0.000000 -0.000000 -0.000000 -0.000000
  1O   1px        0.002085  0.003358 -0.002176  0.130096  0.137041  0.329506
  1O   1py       -0.000000 -0.000000  0.000000 -0.000000 -0.000000 -0.000000
  1O   2pz        0.000000 -0.000000  0.000000 -0.000000  0.000000 -0.000000
  1O   2px       -0.006221 -0.003413 -0.008611  0.022057  0.003414  0.165555
  1O   2py        0.000000 -0.000000  0.000000 -0.000000  0.000000 -0.000000
  1O   1dz2       0.000143  0.000573 -0.000679  0.005982  0.006044  0.008860
  1O   1dxz      -0.000000  0.000000 -0.000000  0.000000  0.000000  0.000000
  1O   1dyz       0.000000  0.000000 -0.000000 -0.000000  0.000000 -0.000000
  1O   1dx2y2    -0.000248 -0.000992  0.001177 -0.010361 -0.010469 -0.015346
  1O   1dxy      -0.000000  0.000000 -0.000000  0.000000  0.000000  0.000000
  2O   1s        -0.671207  0.725644 -0.000101 -0.175729  0.192452  0.124077
  2O   2s         0.030414 -0.031518  0.001294 -0.345747  0.390521  0.259773
  2O   3s        -0.032268  0.018253  0.009947 -0.165937  0.129966  0.286672
  2O   1pz        0.000000 -0.000000  0.000000 -0.000000  0.000000 -0.000000
  2O   1px        0.001818 -0.003510  0.002176 -0.130106  0.137033 -0.329493
  2O   1py        0.000000 -0.000000  0.000000 -0.000000  0.000000 -0.000000
  2O   2pz       -0.000000 -0.000000  0.000000 -0.000000 -0.000000 -0.000000
  2O   2px       -0.005937  0.003886  0.008611 -0.022056  0.003413 -0.165548
  2O   2py       -0.000000 -0.000000  0.000000 -0.000000  0.000000 -0.000000
  2O   1dz2      -0.000098  0.000582 -0.000679  0.005982 -0.006044  0.008860
  2O   1dxz      -0.000000 -0.000000  0.000000 -0.000000  0.000000 -0.000000
  2O   1dyz       0.000000  0.000000  0.000000 -0.000000 -0.000000  0.000000
  2O   1dx2y2     0.000171 -0.001008  0.001177 -0.010362  0.010468 -0.015345
  2O   1dxy      -0.000000 -0.000000  0.000000 -0.000000  0.000000 -0.000000
                      6         7         8         9        10        11   
                  -0.51726  -0.51726  -0.51416  -0.37025  -0.37025   0.03588
                   2.00000   2.00000   2.00000   2.00000   2.00000   0.00000
                  --------  --------  --------  --------  --------  --------
  0C   1s         0.000000  0.000000  0.000003  0.000000  0.000000  0.000000
  0C   2s        -0.000000  0.000000 -0.000006 -0.000000 -0.000000  0.000000
  0C   3s        -0.000000  0.000000  0.000001 -0.000000 -0.000000 -0.000000
  0C   1pz        0.045121 -0.414249 -0.000000  0.000001  0.000000  0.559692
  0C   1px        0.000000 -0.000000  0.352592 -0.000000 -0.000000  0.000000
  0C   1py       -0.414249 -0.045121  0.000000  0.000000 -0.000001 -0.248049
  0C   2pz        0.018106 -0.166233 -0.000000 -0.000001 -0.000000  0.558185
  0C   2px       -0.000000  0.000000 -0.056147 -0.000000  0.000000  0.000000
  0C   2py       -0.166233 -0.018106  0.000000 -0.000000  0.000001 -0.247381
  0C   1dz2       0.000000 -0.000000 -0.000000  0.000000  0.000000  0.000000
  0C   1dxz      -0.000000  0.000000  0.000000 -0.064950 -0.009528  0.000000
[...]
Nuclear geometric perturbations         ... YES (   9 perturbations)
Nucleus-orbit perturbations             ...  NO (   0 perturbations)
Spin-dipole/Fermi contact perturbations ...  NO (   0 perturbations)

Total number of real perturbations      ...     12
Total number of imaginary perturbations ...      0
Total number of triplet perturbations   ...      0
Total number of SOC perturbations       ...      0


                                **********************
                                * REAL PERTURBATIONS *
                                **********************



-------------------
SHARK CP-SCF DRIVER
-------------------

Dimension of the orbital basis          ...     42
Dimension of the CPSCF-problem          ...    341
Number of operators                     ...      1
Max. number of iterations               ...    128
Convergence Tolerance                   ... 1.0e-04
Number of perturbations                 ...     12
Perturbation type                       ... REAL

----------------------------
POPLE LINEAR EQUATION SOLVER
----------------------------

  ITERATION   0:   ||err||_max =   1.0247e+01 (   0.1 sec   0/ 12 done)
  ITERATION   1:   ||err||_max =   1.0059e-01 (   0.1 sec   0/ 12 done)
  ITERATION   2:   ||err||_max =   1.3745e-02 (   0.1 sec   0/ 12 done)
  ITERATION   3:   ||err||_max =   4.6564e-03 (   0.1 sec   8/ 12 done)
  ITERATION   4:   ||err||_max =   6.8541e-04 (   0.1 sec  10/ 12 done)
  ITERATION   5:   ||err||_max =   8.1124e-05 (   0.1 sec  12/ 12 done)

CP-SCF equations solved in   0.6 sec
Response densities calculated in   0.0 sec

Maximum memory used throughout the entire SCFRESP-calculation: 7.2 MB

------------------------------------------------------------------------------
                              ORCA PROPERTY CALCULATIONS
------------------------------------------------------------------------------

GBWName                                 ... co2_opt.gbw
Number of atoms                         ...      3
Number of basis functions               ...     42
Max core memory                         ...   2000 MB

Electric properties:
Dipole moment                           ... YES
Quadrupole moment                       ...  NO
Static polarizability (Dipole/Dipole)   ... YES
Static polarizability (Dipole/Quad.)    ...  NO
Static polarizability (Quad./Quad.)     ...  NO
Static polarizability (Velocity)        ...  NO

Atomic electric properties:
Dipole moment                           ...  NO
Quadrupole moment                       ...  NO
Static polarizability                   ...  NO

Choice of electric origin               ... Center of mass
Position of electric origin             ...     0.000000    -0.000000    -0.000000

General magnetic properties:
Magnetizability                         ...  NO

EPR properties:
g-Tensor (aka g-matrix)                 ...  NO
Zero-Field splitting spin-orbit         ...  NO
Zero-field splitting spin-spin          ...  NO
Hyperfine couplings                     ...  NO (   0 nuclei)
Quadrupole couplings                    ...  NO (   0 nuclei)
Contact density                         ...  NO (   0 nuclei)

NMR properties:
Chemical shifts                         ...  NO (   0 nuclei)
Spin-rotation constants                 ...  NO (   0 nuclei)
Spin-spin couplings                     ...  NO (   0 nuclei,    0 pairs)

Choice of magnetic origin               ... GIAO
Position of magnetic origin             ...     0.000000     0.000000     0.000000

Properties with geometric perturbations:
SCF Hessian                             ... YES
IR spectrum                             ... YES
VCD spectrum                            ...  NO
X-ray spectroscopy properties:
SCF XES/XAS/RIXS spectra                ...  NO


-------------
DIPOLE MOMENT
-------------

Method             : SCF
Type of density    : Electron Density
Multiplicity       :   1
Irrep              :   0
Energy             :  -188.3604503542289024 Eh
Relativity type    : 
Basis              : AO
                                X                 Y                 Z
Electronic contribution:     -0.000018048       0.000000060       0.000000006
Nuclear contribution   :      0.000000032      -0.000000000      -0.000000000
                        -----------------------------------------
Total Dipole Moment    :     -0.000018016       0.000000059       0.000000006
                        -----------------------------------------
Magnitude (a.u.)       :      0.000018016
Magnitude (Debye)      :      0.000045794



--------------------
Rotational spectrum 
--------------------
 
Rotational constants in cm-1:             0.000000             0.389304             0.389304 
Rotational constants in MHz :             0.000000         11671.043109         11671.043109 

Dipole components along the rotational axes: 
x,y,z [a.u.] :    -0.000018    -0.000000     0.000000 
x,y,z [Debye]:    -0.000046    -0.000000     0.000000 

 

Dipole moment calculation done in   0.0 sec 


---------------------------------------------------
STATIC POLARIZABILITY TENSOR (Dipole/Dipole)
---------------------------------------------------

Method             : SCF
Type of density    : Electron Density
Type of derivative : Electric Field (Direction=X)
Multiplicity       :   1
Irrep              :   0
Relativity type    : 
Basis              : AO

The raw cartesian tensor (atomic units):
      21.349804903         0.000000010         0.000000931  
       0.000000010         7.396406083         0.000000014  
       0.000000931         0.000000014         7.396406189  
diagonalized tensor: 
       7.396406082         7.396406191        21.349804903  

Orientation: 
       0.000000008        -0.000000066        -1.000000000  
       0.991154897         0.132710101        -0.000000001  
      -0.132710101         0.991154897        -0.000000067  

Isotropic polarizability :  12.04754


Polarizability tensor calculation done in   0.0 sec 

-----------
SCF HESSIAN
-----------

Occupied/Occupied contributions to the Hessian:
   => Occupied/Occupied contributions              ... done (  0.0 sec)
Perturbed density contributions to the Hessian:
   => Perturbed density contributions              ... done (  0.0 sec)
Explicit contributions to the Hessian:
   => Nuclear repulsion Hessian                    ... done (  0.0 sec)
   => HCore and overlap Hessian                    ... done (  0.0 sec)
   => RI-J Hessian                                 ... done (  0.2 sec)
   => COSX Hessian                                 ... done (  9.5 sec)
   => XC-Hessian                                   ... done (  0.8 sec)
   => Explicit contributions done
E-field response densities           ... done
Dipole derivatives                                 ... done (  0.0 sec)
Mass weighting the Hessian           ... done
Calculating normal modes             ... done
Scaling frequencies                  ... done

-----------------------
VIBRATIONAL FREQUENCIES
-----------------------

Scaling factor for frequencies =  1.000000000  (already applied!)

Warning: the translational and rotational modes were NOT projected out from the Hessian!
Therefore, the translational and rotational frequencies may be non-zero!


     0:     -10.84 cm**-1  ***imaginary mode***
     1:     -10.84 cm**-1  ***imaginary mode***
     2:      -0.00 cm**-1
     3:       0.00 cm**-1
     4:       0.01 cm**-1
     5:     652.07 cm**-1
     6:     652.07 cm**-1
     7:    1387.77 cm**-1
     8:    2469.87 cm**-1


------------
NORMAL MODES
------------

These modes are the Cartesian displacements weighted by the diagonal matrix
M(i,i)=1/sqrt(m[i]) where m[i] is the mass of the displaced atom
Thus, these vectors are normalized but *not* orthogonal

                  0          1          2          3          4          5    
      0       0.000414   0.000301   0.000002  -0.000014  -0.577350   0.000000
      1       0.000013  -0.000004  -0.352802   0.457017  -0.000013  -0.042308
      2       0.000004   0.000013  -0.457017  -0.352802   0.000007  -0.882248
      3       0.000414   0.000301   0.000002  -0.000014  -0.577350  -0.000000
      4       0.669966  -0.226137  -0.352802   0.457017   0.000320   0.015882
      5       0.226136   0.669966  -0.457017  -0.352802   0.000476   0.331176
      6       0.000414   0.000301   0.000002  -0.000014  -0.577350   0.000000
      7      -0.669976   0.226140  -0.352802   0.457017  -0.000345   0.015881
      8      -0.226140  -0.669976  -0.457017  -0.352802  -0.000462   0.331158
                  6          7          8    
      0       0.000000  -0.000025  -0.883262
      1       0.882248   0.000000   0.000000
      2      -0.042308  -0.000000   0.000000
      3      -0.000000   0.707116   0.331531
      4      -0.331176   0.000000  -0.000000
      5       0.015881   0.000000  -0.000000
      6       0.000000  -0.707097   0.331564
      7      -0.331158  -0.000000   0.000000
      8       0.015881   0.000000   0.000000


-----------
IR SPECTRUM
-----------

 Mode   freq       eps      Int      T**2         TX        TY        TZ
       cm**-1   L/(mol*cm) km/mol    a.u.
----------------------------------------------------------------------------
  5:    652.07   0.006484   32.77  0.003103  (-0.000000 -0.002668 -0.055641)
  6:    652.07   0.006484   32.77  0.003103  (-0.000000  0.055641 -0.002668)
  7:   1387.77   0.000000    0.00  0.000000  (-0.000003 -0.000000 -0.000000)
  8:   2469.87   0.121129  612.14  0.015304  (-0.123711 -0.000000 -0.000000)

* The epsilon (eps) is given for a Dirac delta lineshape.
** The dipole moment derivative (T) already includes vibrational overlap.

The first frequency considered to be a vibration is 5
The total number of vibrations considered is 4


--------------------------
THERMOCHEMISTRY AT 298.15K
--------------------------

Temperature         ...   298.15 K
Pressure            ...     1.00 atm
Total Mass          ...    44.01 AMU
Quasi RRHO          ...     True
Cut-Off Frequency   ...     1.00 cm^-1
The molecule is recognized as being linear

Throughout the following assumptions are being made:
  (1) The electronic state is orbitally nondegenerate
  (2) There are no thermally accessible electronically excited states
  (3) Hindered rotations indicated by low frequency modes are not
      treated as such but are treated as vibrations and this may
      cause some error
  (4) All equations used are the standard statistical mechanics
      equations for an ideal gas
  (5) All vibrations are strictly harmonic


Warning: translational/rotational symmetry breaking observed!
As a result, the following additional assumption(s) will be made:
  (6) The symmetry broken mode(s) are purely rotational
  (7) Each remaining symmetry-preserving rotation contributes
      1/3 of the free-molecule rotational energy/entropy
  (8) All non-zero-frequency librational modes are treated as
      vibrational modes

freq.     652.07  E(vib)   ...       0.08 
freq.     652.07  E(vib)   ...       0.08 
freq.    1387.77  E(vib)   ...       0.00 
freq.    2469.87  E(vib)   ...       0.00 

------------
INNER ENERGY
------------

The inner energy is: U= E(el) + E(ZPE) + E(vib) + E(rot) + E(trans)
    E(el)   - is the total energy from the electronic structure calculation
              = E(kin-el) + E(nuc-el) + E(el-el) + E(nuc-nuc)
    E(ZPE)  - the the zero temperature vibrational energy from the frequency calculation
    E(vib)  - the the finite temperature correction to E(ZPE) due to population
              of excited vibrational states
    E(rot)  - is the rotational thermal energy
    E(trans)- is the translational thermal energy

Summary of contributions to the inner energy U:
Electronic energy                ...   -188.36045035 Eh
Zero point energy                ...      0.01175939 Eh       7.38 kcal/mol
Thermal vibrational correction   ...      0.00027487 Eh       0.17 kcal/mol
Thermal rotational correction    ...      0.00000000 Eh       0.00 kcal/mol
Thermal translational correction ...      0.00141627 Eh       0.89 kcal/mol
-----------------------------------------------------------------------
Total thermal energy                   -188.34699982 Eh


Summary of corrections to the electronic energy:
(perhaps to be used in another calculation)
Total thermal correction                  0.00169115 Eh       1.06 kcal/mol
Non-thermal (ZPE) correction              0.01175939 Eh       7.38 kcal/mol
-----------------------------------------------------------------------
Total correction                          0.01345054 Eh       8.44 kcal/mol


--------
ENTHALPY
--------

The enthalpy is H = U + kB*T
                kB is Boltzmann's constant
Total thermal energy              ...   -188.34699982 Eh 
Thermal Enthalpy correction       ...      0.00094421 Eh       0.59 kcal/mol
-----------------------------------------------------------------------
Total Enthalpy                    ...   -188.34605561 Eh


Note: Rotational entropy computed according to Herzberg 
Infrared and Raman Spectra, Chapter V,1, Van Nostrand Reinhold, 1945 
Point Group:  D(inf)h, Symmetry Number:   1  
Rotational constants in cm-1:     0.000000     0.389304     0.389304 

Vibrational entropy computed according to the QRRHO of S. Grimme
Chem.Eur.J. 2012 18 9955 using a reference frequency of 100.0 cm-1


-------
ENTROPY
-------

The entropy contributions are T*S = T*(S(el)+S(vib)+S(rot)+S(trans))
     S(el)   - electronic entropy
     S(vib)  - vibrational entropy
     S(rot)  - rotational entropy
     S(trans)- translational entropy
The entropies will be listed as multiplied by the temperature to get
units of energy

Electronic entropy                ...      0.00000000 Eh      0.00 kcal/mol
Vibrational entropy               ...      0.00035936 Eh      0.23 kcal/mol
Rotational entropy                ...      0.00000000 Eh      0.00 kcal/mol
Translational entropy             ...      0.01770880 Eh     11.11 kcal/mol
-----------------------------------------------------------------------
Final entropy term                ...      0.01806816 Eh     11.34 kcal/mol


-------------------
GIBBS FREE ENERGY
-------------------

The Gibbs free energy is G = H - T*S

Total enthalpy                    ...   -188.34605561 Eh 
Total entropy correction          ...     -0.01806816 Eh    -11.34 kcal/mol
-----------------------------------------------------------------------
Final Gibbs free energy         ...   -188.36412377 Eh

For completeness - the Gibbs free energy minus the electronic energy
G-E(el)                           ...     -0.00367342 Eh     -2.31 kcal/mol


Maximum memory used throughout the entire PROP-calculation: 10.0 MB

--------------------------------
SUGGESTED CITATIONS FOR THIS RUN
--------------------------------

Below you find a list of papers that are relevant to this ORCA run
We neither can nor want to force you to cite these papers, but we appreciate if you do
You receive ORCA, which is the product of decades of hard work by many enthusiastic individuals, for free
The only thing we kindly ask in return is that you cite our papers,
We deeply appreciate it, if you show your appreciation for ORCA by not just citing the generic ORCA reference.

Please note that relegating all ORCA citations to the supporting information does *not* help us.
SI sections are not indexed - citations you put there will not count into any citation statistics
But we need these citations in order to attract the funding resources that allow us to do what we are doing

Therefore, if you are a happy ORCA user, please consider citing a few of the papers listed below in the main body of your paper

In addition to the list printed below, the program has created the file co2_opt.bibtex that contains the list in bibtex format
You can import this file easily into all common literature databanks and citation aid programs


List of essential papers. We consider these as the minimum necessary citations

  1. Neese,F.
     Software update: the ORCA program system, version 5.0
     WIRES Comput. Molec. Sci., 2022 12(1)e1606
     doi.org/10.1002/wcms.1606

List of papers to cite with high priority. The work reported in these papers was absolutely
necessary for this run to complete.
Our perspective: the developers of density functionals and basis sets usually get cited in chemistry papers
Good! But without the algorithms to do something with them, the functionals or basis sets would not do anything.
Hence, in our opinion, the algorithm design and method developments papers are equally worthy of getting cited

  1. Neese,F.
     An improvement of the resolution of the identity approximation for the formation of the Coulomb matrix
     J. Comp. Chem., 2003 24(14)1740-1747
     doi.org/10.1002/jcc.10318
  2. Neese,F.; Wennmohs,F.; Hansen,A.; Becker,U.
     Efficient, approximate and parallel Hartree-Fock and hybrid DFT calculations. A 'chain-of-spheres' algorithm for the Hartree-Fock exchange
     Chem. Phys., 2009 356(1-3)98-109
     doi.org/10.1016/j.chemphys.2008.10.036
  3. Bykov,D.; Petrenko,T.; Izsak,R.; Kossmann,S.; Becker,U.; Valeev,E.; Neese,F.
     Efficient implementation of the analytic second derivatives of Hartree-Fock and hybrid DFT energies: a detailed analysis of different approximations
     Molec. Phys., 2015 113 1961-1977
     doi.org/10.1080/00268976.2015.1025114
  4. Helmich-Paris,B.; de Souza,B.; Neese,F.; Izsák,R.
     An improved chain of spheres for exchange algorithm
     J. Chem. Phys., 2021 155 104109
     doi.org/doi: 10.1063/5.0058766.
  5. Neese,F.
     The SHARK Integral Generation and Digestion System
     J. Comp. Chem., 2022  1-16
     doi.org/10.1002/jcc.26942

List of suggested additional citations. These are papers that are important in the 'surrounding' of 
of this run, or papers that preceded the highly important papers. If you like your results we are grateful for a citation.

  1. Izsak,R.; Neese,F.
     An overlap fitted chain of spheres exchange method
     J. Chem. Phys., 2011 135 144105
     doi.org/10.1063/1.3646921
  2. Izsak,R.; Hansen,A.; Neese,F.
     The resolution of identity and chain of spheres approximations for the LPNO-CCSD singles Fock term
     Molec. Phys., 2012 110 2413-2417
     doi.org/10.1080/00268976.2012.687466
  3. Neese,F.
     The ORCA program system
     WIRES Comput. Molec. Sci., 2012 2(1)73-78
     doi.org/10.1002/wcms.81
  4. Izsak,R.; Neese,F.; Klopper,W.
     Robust fitting techniques in the chain of spheres approximation to the Fock exchange: The role of the complementary space
     J. Chem. Phys., 2013 139 
     doi.org/10.1063/1.4819264
  5. Neese,F.
     Software update: the ORCA program system, version 4.0
     WIRES Comput. Molec. Sci., 2018 8(1)1-6
     doi.org/10.1002/wcms.1327
  6. Neese,F.; Wennmohs,F.; Becker,U.; Riplinger,C.
     The ORCA quantum chemistry program package
     J. Chem. Phys., 2020 152 Art. No. L224108
     doi.org/10.1063/5.0004608

List of optional additional citations

  1. Neese,F.
     Approximate second-order SCF convergence for spin unrestricted wavefunctions
     Chem. Phys. Lett., 2000 325(1-3)93-98
     doi.org/10.1016/s0009-2614(00)00662-x

Timings for individual modules:

Sum of individual times          ...       21.676 sec (=   0.361 min)
Startup calculation              ...        0.720 sec (=   0.012 min)   3.3 %
SCF iterations                   ...        4.662 sec (=   0.078 min)  21.5 %
Property integrals               ...        1.675 sec (=   0.028 min)   7.7 %
SCF Response                     ...        0.656 sec (=   0.011 min)   3.0 %
Property calculations            ...       10.525 sec (=   0.175 min)  48.6 %
SCF Gradient evaluation          ...        3.433 sec (=   0.057 min)  15.8 %
Geometry relaxation              ...        0.007 sec (=   0.000 min)   0.0 %
                             ****ORCA TERMINATED NORMALLY****
TOTAL RUN TIME: 0 days 0 hours 0 minutes 21 seconds 826 msec
