
                                 *****************
                                 * O   R   C   A *
                                 *****************

                                            #,                                       
                                            ###                                      
                                            ####                                     
                                            #####                                    
                                            ######                                   
                                           ########,                                 
                                     ,,################,,,,,                         
                               ,,#################################,,                 
                          ,,##########################################,,             
                       ,#########################################, ''#####,          
                    ,#############################################,,   '####,        
                  ,##################################################,,,,####,       
                ,###########''''           ''''###############################       
              ,#####''   ,,,,##########,,,,          '''####'''          '####       
            ,##' ,,,,###########################,,,                        '##       
           ' ,,###''''                  '''############,,,                           
         ,,##''                                '''############,,,,        ,,,,,,###''
      ,#''                                            '''#######################'''  
     '                                                          ''''####''''         
             ,#######,   #######,   ,#######,      ##                                
            ,#'     '#,  ##    ##  ,#'     '#,    #''#        ,####,   ,####,        
            ##       ##  ##   ,#'  ##            #'  '#       #'       #'  '#        
            ##       ##  #######   ##           ,######,      #####,   #    #        
            '#,     ,#'  ##    ##  '#,     ,#' ,#      #,     #,   #   #,  ,#        
             '#######'   ##     ##  '#######'  #'      '#     '####' # '####'        



                #########################################################
                #                        -***-                          #
                #          Department of theory and spectroscopy        #
                #                                                       #
                #                      Frank Neese                      #
                #                                                       #
                #     Directorship, Architecture, Infrastructure        #
                #                    SHARK, DRIVERS                     #
                #        Core code/Algorithms in most modules           #
                #                                                       #
                #        Max Planck Institute fuer Kohlenforschung      #
                #                Kaiser Wilhelm Platz 1                 #
                #                 D-45470 Muelheim/Ruhr                 #
                #                      Germany                          #
                #                                                       #
                #                  All rights reserved                  #
                #                        -***-                          #
                #########################################################


                         Program Version 6.0.1  -  RELEASE   -


 With contributions from (in alphabetic order):
[Max-Planck-Institut fuer Kohlenforschung]                               
  Daniel Aravena         : Magnetic Suceptibility                        
  Michael Atanasov       : Ab Initio Ligand Field Theory (pilot matlab implementation)
  Alexander A. Auer      : GIAO ZORA, VPT2 properties, NMR spectrum      
  Ute Becker             : All parallelization in ORCA, NUMFREQ, NUMCALC 
  Giovanni Bistoni       : ED, misc. LED, open-shell LED, HFLD           
  Martin Brehm           : Molecular dynamics                            
  Dmytro Bykov           : pre 5.0 version of the SCF Hessian            
  Marcos Casanova-Páez   : Triplet and SCS-CIS(D). UHF-(DLPNO)-IP/EA/STEOM-CCSD. UHF-CVS-IP/STEOM-CCSD   
  Vijay G. Chilkuri      : MRCI spin determinant printing, contributions to CSF-ICE 
  Pauline Colinet        : FMM embedding                                 
  Dipayan Datta          : RHF DLPNO-CCSD density                        
  Achintya Kumar Dutta   : EOM-CC, STEOM-CC                              
  Nicolas Foglia         : Exact transition moments, OPA infrastructure, MCD improvements    
  Dmitry Ganyushin       : Spin-Orbit,Spin-Spin,Magnetic field MRCI      
  Miquel Garcia-Rates    : C-PCM and meta-GGA Hessian, CCSD/C-PCM, Gaussian charge scheme 
  Tiago L. C. Gouveia    : GS-ROHF, GS-ROCIS                             
  Yang Guo               : DLPNO-NEVPT2, F12-NEVPT2, CIM, IAO-localization        
  Andreas Hansen         : Spin unrestricted coupled pair/coupled cluster methods 
  Ingolf Harden          : AUTO-CI MPn and infrastructure                
  Benjamin Helmich-Paris : MC-RPA, TRAH-(SCF,CASSCF), AVAS, COSX integrals, SCF dyn. polar. 
  Lee Huntington         : MR-EOM, pCC                                   
  Robert Izsak           : Overlap fitted RIJCOSX, COSX-SCS-MP3, EOM     
  Riya Kayal             : Wick's Theorem for AUTO-CI, AUTO-CI UHF-CCSDT 
  Emily Kempfer          : AUTO-CI, RHF CISDT and CCSDT                  
  Christian Kollmar      : KDIIS, OOCD, Brueckner-CCSD(T), CCSD density, CASPT2, CASPT2-K, improved NEVPT2 
  Axel Koslowski         : Symmetry handling                             
  Simone Kossmann        : meta-GGA functionals, TD-DFT gradient, OOMP2, (MP2 Hessian; deprecated post 5.0) 
  Lucas Lang             : DCDCAS                                        
  Marvin Lechner         : AUTO-CI (C++ implementation), FIC-MRCC        
  Spencer Leger          : CASSCF response                               
  Dagmar Lenk            : GEPOL surface, SMD, ORCA-2-JSON               
  Dimitrios Liakos       : Extrapolation schemes; Compound Job, initial MDCI parallelization 
  Dimitrios Manganas     : Further ROCIS development; embedding schemes. LFT, Crystal Embedding 
  Dimitrios Pantazis     : SARC Basis sets                               
  Anastasios Papadopoulos: AUTO-CI, single reference methods and gradients 
  Taras Petrenko         : pre 6.0 DFT Hessian and TD-DFT gradient, (ASA, deprecated), ECA, 1-Electron XAS/XES, NRVS 
  Peter Pinski           : DLPNO-MP2, DLPNO-MP2 Gradient                 
  Christoph Reimann      : Effective Core Potentials                     
  Marius Retegan         : Local ZFS, SOC                                
  Christoph Riplinger    : Optimizer, TS searches, QM/MM, DLPNO-CCSD(T), (RO)-DLPNO pert. Triples 
  Michael Roemelt        : Original ROCIS implementation                 
  Masaaki Saitow         : Open-shell DLPNO-CCSD energy and density      
  Barbara Sandhoefer     : DKH picture change effects                    
  Kantharuban Sivalingam : CASSCF convergence/infrastructure, NEVPT2 and variants, FIC-MRCI 
  Bernardo de Souza      : ESD, SOC TD-DFT                               
  Georgi L. Stoychev     : AutoAux, RI-MP2 NMR, DLPNO-MP2 response, X2C  
  Van Anh Tran           : RI-MP2 g-tensors                              
  Willem Van den Heuvel  : Paramagnetic NMR                              
  Zikuan Wang            : NOTCH, Electric field optimization            
  Frank Wennmohs         : Technical directorship and infrastructure     
  Hang Xu                : AUTO-CI-Response properties                   
                                                                         
[FACCTs GmbH]                                                            
  Markus Bursch, Miquel Garcia-Rates, Christoph Riplinger, Bernardo de Souza, Georgi L. Stoychev 
                                                                 
  APM, Basis sets (HGBS, AHGBS, def-TZVP (Ac-Lr), def2-XVPD (La-Lu)), CI-OPT, improved COSX, DLPNO-Multilevel,           
  DOCKER, DRACO, updates on ESD, GOAT, IRC, LR-CPCM, MBIS, meta-GGA TD-DFT gradient, ML-optimized integration grids, 
  MM, NACMEs, nearIR, NEB, NEB-TS, NL-DFT gradient (VV10), 2- and 3-layer-ONIOM, interface openCOSMO-RS, QMMM,   
  Crystal-QMMM, SF, symmetry and pop. for TD-DFT, r2SCAN hybrids, SOLVATOR                                   
                                                                         
[Other institutions]                                                     
  V. Asgeirsson          : NEB                                           
  Christoph Bannwarth    : sTDA-DFT, sTD-DFT, PBEh-3c, B97-3c, D3        
  Sebastian Ehlert       : rSCAN, r2SCAN, r2SCAN-3c, D4, dhf basis sets  
  Marvin Friede          : D4 for Fr, Ra, Ac-Lr                          
  Lars Goerigk           : TD-DFT with DH, B97 family of functionals     
  Stefan Grimme          : VdW corrections, initial TS optimization, DFT functionals, gCP, sTDA/sTD-DF 
  Waldemar Hujo          : DFT-NL                                        
  H. Jonsson             : NEB                                           
  Holger Kruse           : gCP                                           
  Marcel Mueller         : wB97X-3c, vDZP basis set                      
  Hagen Neugebauer       : wr2SCAN                                       
  Tobias Risthaus        : range-separated hybrid DFT                    
  Lukas Wittmann         : regularized MP2, r2SCAN double-hybrids, wr2SCAN        
                                                                         
We gratefully acknowledge several colleagues who have allowed us to      
interface, adapt or use parts of their codes:                            
  Ed Valeev, F. Pavosevic, A. Kumar             : LibInt (2-el integral package), F12 methods 
  Garnet Chan, S. Sharma, J. Yang, R. Olivares  : DMRG                   
  Ulf Ekstrom                                   : XCFun DFT Library      
  Mihaly Kallay                                 : mrcc  (arbitrary order and MRCC methods)
  Frank Weinhold                                : gennbo (NPA and NBO analysis)           
  Simon Mueller                                 : openCOSMO-RS                            
  Christopher J. Cramer and Donald G. Truhlar   : smd solvation model                     
  S Lehtola, MJT Oliveira, MAL Marques          : LibXC Library                           
  Liviu Ungur et al                             : ANISO software                          


 Your calculation uses the libint2 library for the computation of 2-el integrals
 For citations please refer to: http://libint.valeyev.net

 Your ORCA version has been built with support for libXC version: 6.2.2
 For citations please refer to: https://libxc.gitlab.io

 This ORCA versions uses:
   CBLAS   interface :  Fast vector & matrix operations
   LAPACKE interface :  Fast linear algebra routines
   SCALAPACK package :  Parallel linear algebra routines
   Shared memory     :  Shared parallel matrices
   BLAS/LAPACK       :  OpenBLAS 0.3.27  USE64BITINT DYNAMIC_ARCH NO_AFFINITY SkylakeX SINGLE_THREADED
        Core in use  :  SkylakeX
   Copyright (c) 2011-2014, The OpenBLAS Project


NOTE: MaxCore=2000 MB was set to SCF,MP2,MDCI,CIPSI,MRCI and CIS
      => If you want to overwrite this, your respective input block should be placed after the MaxCore statement
Warning: RI is on but no J-basis has been assigned. Assigning Def2/J (nothing to worry about!)
================================================================================

----- Orbital basis set information -----
Your calculation utilizes the basis: def2-TZVPD
   F. Weigend and R. Ahlrichs, Phys. Chem. Chem. Phys. 7, 3297 (2005).
   D. Rappoport and F. Furche, J. Chem. Phys. 133, 134105 (2010)
   D. Rappoport, J. Chem. Phys. 155, 124102 (2021).

----- AuxJ basis set information -----
Your calculation utilizes the auxiliary basis: def2/J
   F. Weigend, Phys. Chem. Chem. Phys. 8, 1057 (2006).

================================================================================
                                        WARNINGS
                       Please study these warnings very carefully!
================================================================================

WARNING: Old DensityContainer found on disk!
         Will remove this file - 
         If you want to keep old densities, please start your calculation with a different basename. 


WARNING: Geometry Optimization
  ===> : Switching off AutoStart
         For restart on a previous wavefunction, please use MOREAD

================================================================================
                                       INPUT FILE
================================================================================
NAME = co2_opt.inp
|  1> ! B3LYP def2-TZVPD Opt NumFreq TightSCF
|  2> %maxcore 2000
|  3> %geom
|  4> Calc_Hess true
|  5> Recalc_Hess 5
|  6> end
|  7> %output
|  8>   PrintLevel 4
|  9> end
| 10> %elprop Polar 1 end
| 11> * xyz 0 1
| 12> C    0.000000    0.000000    0.000000
| 13> O    1.200000    0.000000    0.000000
| 14> O   -1.200000    0.000000    0.000000
| 15> *
| 16> 
| 17> 
| 18>                          ****END OF INPUT****
================================================================================

                       *****************************
                       * Geometry Optimization Run *
                       *****************************

Geometry optimization settings:
Update method            Update   .... BFGS
Choice of coordinates    CoordSys .... (2022) Redundant Internals
Initial Hessian          InHess   .... Almloef's Model
Max. no of cycles        MaxIter  .... 50

Convergence Tolerances:
Energy Change            TolE     ....  5.0000e-06 Eh
Max. Gradient            TolMAXG  ....  3.0000e-04 Eh/bohr
RMS Gradient             TolRMSG  ....  1.0000e-04 Eh/bohr
Max. Displacement        TolMAXD  ....  4.0000e-03 bohr
RMS Displacement         TolRMSD  ....  2.0000e-03 bohr
Strict Convergence                .... False

------------------------------------------------------------------------------
                        ORCA OPTIMIZATION COORDINATE SETUP
------------------------------------------------------------------------------

The optimization will be done in redundant internal coordinates (2022)
Making redundant internal coordinates   ...  (2022 redundants) done
Evaluating the initial hessian          ...  (Is done on the fly) done
Evaluating the coordinates              ...  done
Calculating the B-matrix                .... done
Calculating the G-matrix                .... done
Diagonalizing the G-matrix              .... done
The first mode is                       ....    0
The number of degrees of freedom        ....    4

    -----------------------------------------------------------------
                    Redundant Internal Coordinates


    -----------------------------------------------------------------
         Definition                    Initial Value    d2E/dq (diagonal element)
    -----------------------------------------------------------------
      1. B(O   1,C   0)                  1.2000         0.000000   
      2. B(O   2,C   0)                  1.2000         0.000000   
      3. L(O   1,C   0,O   2, 2)       180.0000         0.000000   
      4. L(O   1,C   0,O   2, 1)       180.0000         0.000000   
    -----------------------------------------------------------------

Number of atoms                         .... 3
Number of degrees of freedom            .... 4


         *************************************************************
         *                GEOMETRY OPTIMIZATION CYCLE   1            *
         *************************************************************
---------------------------------
CARTESIAN COORDINATES (ANGSTROEM)
---------------------------------
  C      0.000000    0.000000    0.000000
  O      1.200000    0.000000    0.000000
  O     -1.200000    0.000000    0.000000

----------------------------
CARTESIAN COORDINATES (A.U.)
----------------------------
  NO LB      ZA    FRAG     MASS         X           Y           Z
   0 C     6.0000    0    12.011    0.000000    0.000000    0.000000
   1 O     8.0000    0    15.999    2.267671    0.000000    0.000000
   2 O     8.0000    0    15.999   -2.267671    0.000000    0.000000

--------------------------------
INTERNAL COORDINATES (ANGSTROEM)
--------------------------------
 C      0   0   0     0.000000000000     0.00000000     0.00000000
 O      1   0   0     1.200000000000     0.00000000     0.00000000
 O      1   2   0     1.200000000000   180.00000000     0.00000000

---------------------------
INTERNAL COORDINATES (A.U.)
---------------------------
 C      0   0   0     0.000000000000     0.00000000     0.00000000
 O      1   0   0     2.267671360706     0.00000000     0.00000000
 O      1   2   0     2.267671360706   180.00000000     0.00000000

---------------------
BASIS SET INFORMATION
---------------------
There are 2 groups of distinct atoms

 Group   1 Type C   : 12s6p3d1f contracted to 6s3p3d1f pattern {621111/411/111/1}
 Group   2 Type O   : 12s7p3d1f contracted to 6s4p3d1f pattern {621111/4111/111/1}

Atom   0C    basis set group =>   1
Atom   1O    basis set group =>   2
Atom   2O    basis set group =>   2
---------------------------------
AUXILIARY/J BASIS SET INFORMATION
---------------------------------
There are 2 groups of distinct atoms

 Group   1 Type C   : 12s5p4d2f1g contracted to 6s4p3d1f1g pattern {711111/2111/211/2/1}
 Group   2 Type O   : 12s5p4d2f1g contracted to 6s4p3d1f1g pattern {711111/2111/211/2/1}

Atom   0C    basis set group =>   1
Atom   1O    basis set group =>   2
Atom   2O    basis set group =>   2
------------------------------------------------------------------------------
                             ORCA STARTUP CALCULATIONS
                           -- RI-GTO INTEGRALS CHOSEN --
------------------------------------------------------------------------------
------------------------------------------------------------------------------
                   ___                                                        
                  /   \      - P O W E R E D   B Y -                         
                 /     \                                                     
                 |  |  |   _    _      __       _____    __    __             
                 |  |  |  | |  | |    /  \     |  _  \  |  |  /  |          
                  \  \/   | |  | |   /    \    | | | |  |  | /  /          
                 / \  \   | |__| |  /  /\  \   | |_| |  |  |/  /          
                |  |  |   |  __  | /  /__\  \  |    /   |      \           
                |  |  |   | |  | | |   __   |  |    \   |  |\   \          
                \     /   | |  | | |  |  |  |  | |\  \  |  | \   \       
                 \___/    |_|  |_| |__|  |__|  |_| \__\ |__|  \__/        
                                                                              
                      - O R C A' S   B I G   F R I E N D -                    
                                      &                                       
                       - I N T E G R A L  F E E D E R -                       
                                                                              
 v1 FN, 2020, v2 2021, v3 2022-2024                                           
------------------------------------------------------------------------------


----------------------
SHARK INTEGRAL PACKAGE
----------------------

Number of atoms                             ...      3
Number of basis functions                   ...    117
Number of shells                            ...     41
Maximum angular momentum                    ...      3
Integral batch strategy                     ... SHARK/LIBINT Hybrid
RI-J (if used) integral strategy            ... SPLIT-RIJ (Revised 2003 algorithm where possible)
Printlevel                                  ...      1
Contraction scheme used                     ... SEGMENTED contraction
Prescreening option                         ... SCHWARTZ
   Thresh                                   ... 2.500e-11
   Tcut                                     ... 2.500e-12
   Tpresel                                  ... 2.500e-12 
Coulomb Range Separation                    ... NOT USED
Exchange Range Separation                   ... NOT USED
Multipole approximations                    ... NOT USED
Finite Nucleus Model                        ... NOT USED
CABS basis                                  ... NOT available
Auxiliary Coulomb fitting basis             ... AVAILABLE
   # of basis functions in Aux-J            ...    147
   # of shells in Aux-J                     ...     45
   Maximum angular momentum in Aux-J        ...      4
Auxiliary J/K fitting basis                 ... NOT available
Auxiliary Correlation fitting basis         ... NOT available
Auxiliary 'external' fitting basis          ... NOT available

Checking pre-screening integrals            ... done (  0.0 sec) Dimension = 41
Check shell pair data                       ... done (  0.0 sec)
Shell pair information
Shell pair cut-off parameter TPreSel        ...   2.5e-12
Total number of shell pairs                 ...       861
Shell pairs after pre-screening             ...       849
Total number of primitive shell pairs       ...      2412
Primitive shell pairs kept                  ...      2113
          la=0 lb=0:    165 shell pairs
          la=1 lb=0:    196 shell pairs
          la=1 lb=1:     66 shell pairs
          la=2 lb=0:    158 shell pairs
          la=2 lb=1:     99 shell pairs
          la=2 lb=2:     45 shell pairs
          la=3 lb=0:     54 shell pairs
          la=3 lb=1:     33 shell pairs
          la=3 lb=2:     27 shell pairs
          la=3 lb=3:      6 shell pairs

Calculating one electron integrals          ... done (  0.0 sec)
Calculating RI/J V-Matrix + Cholesky decomp.... done (  0.0 sec)
Calculating Nuclear repulsion               ... done (  0.0 sec) ENN=     56.445568885333 Eh

Diagonalization of the overlap matrix:
Smallest eigenvalue                        ... 1.201e-04
Time for diagonalization                   ...    0.001 sec
Threshold for overlap eigenvalues          ... 1.000e-07
Number of eigenvalues below threshold      ... 0
Time for construction of square roots      ...    0.000 sec
Total time needed                          ...    0.002 sec

-------------------
DFT GRID GENERATION
-------------------

General Integration Accuracy     IntAcc      ... 4.388
Radial Grid Type                 RadialGrid  ... OptM3 with GC (2021)
Angular Grid (max. ang.)         AngularGrid ... 4 (Lebedev-302)
Angular grid pruning method      GridPruning ... 4 (adaptive)
Weight generation scheme         WeightScheme... mBecke (2022)
Basis function cutoff            BFCut       ... 1.0000e-11
Integration weight cutoff        WCut        ... 1.0000e-14
Partially contracted basis set               ... off
Rotationally invariant grid construction     ... off
Angular grids for H and He will be reduced by one unit
Diffuse basis detected: some atoms will have their outermost
                        angular grid increased by 1.

Total number of grid points                  ...    19310
Total number of batches                      ...      304
Average number of points per batch           ...       63
Average number of grid points per atom       ...     6437

--------------------
COSX GRID GENERATION
--------------------

GRIDX 1
-------
General Integration Accuracy     IntAcc      ... 3.816
Radial Grid Type                 RadialGrid  ... OptM3 with GC (2021)
Angular Grid (max. ang.)         AngularGrid ... 1 (Lebedev-50)
Angular grid pruning method      GridPruning ... 4 (adaptive)
Weight generation scheme         WeightScheme... mBecke (2022)
Basis function cutoff            BFCut       ... 1.0000e-11
Integration weight cutoff        WCut        ... 1.0000e-14
Partially contracted basis set               ... on
Rotationally invariant grid construction     ... off
Angular grids for H and He will be reduced by one unit
Diffuse basis detected: some atoms will have their outermost
                        angular grid increased by 1.

Total number of grid points                  ...     2436
Total number of batches                      ...       20
Average number of points per batch           ...      121
Average number of grid points per atom       ...      812
UseSFitting                                  ... on

GRIDX 2
-------
General Integration Accuracy     IntAcc      ... 4.020
Radial Grid Type                 RadialGrid  ... OptM3 with GC (2021)
Angular Grid (max. ang.)         AngularGrid ... 2 (Lebedev-110)
Angular grid pruning method      GridPruning ... 4 (adaptive)
Weight generation scheme         WeightScheme... mBecke (2022)
Basis function cutoff            BFCut       ... 1.0000e-11
Integration weight cutoff        WCut        ... 1.0000e-14
Partially contracted basis set               ... on
Rotationally invariant grid construction     ... off
Angular grids for H and He will be reduced by one unit
Diffuse basis detected: some atoms will have their outermost
                        angular grid increased by 1.

Total number of grid points                  ...     6852
Total number of batches                      ...       54
Average number of points per batch           ...      126
Average number of grid points per atom       ...     2284
UseSFitting                                  ... on

GRIDX 3
-------
General Integration Accuracy     IntAcc      ... 4.338
Radial Grid Type                 RadialGrid  ... OptM3 with GC (2021)
Angular Grid (max. ang.)         AngularGrid ... 3 (Lebedev-194)
Angular grid pruning method      GridPruning ... 4 (adaptive)
Weight generation scheme         WeightScheme... mBecke (2022)
Basis function cutoff            BFCut       ... 1.0000e-11
Integration weight cutoff        WCut        ... 1.0000e-14
Partially contracted basis set               ... on
Rotationally invariant grid construction     ... off
Angular grids for H and He will be reduced by one unit
Diffuse basis detected: some atoms will have their outermost
                        angular grid increased by 1.

Total number of grid points                  ...    14798
Total number of batches                      ...      116
Average number of points per batch           ...      127
Average number of grid points per atom       ...     4933
UseSFitting                                  ... on
Initializing property integral containers    ... done (  0.0 sec)

SHARK setup successfully completed in   0.3 seconds

Maximum memory used throughout the entire STARTUP-calculation: 13.8 MB
-------------------------------------------------------------------------------
                                 ORCA GUESS
                   Start orbitals & Density for SCF / CASSCF
-------------------------------------------------------------------------------

------------
SCF SETTINGS
------------
Hamiltonian:
 Density Functional     Method          .... DFT(GTOs)
 Exchange Functional    Exchange        .... B88
   X-Alpha parameter    XAlpha          ....  0.666667
   Becke's b parameter  XBeta           ....  0.004200
 Correlation Functional Correlation     .... LYP
 LDA part of GGA corr.  LDAOpt          .... VWN-5
 Gradients option       PostSCFGGA      .... off
 Hybrid DFT is turned on
   Fraction HF Exchange ScalHFX         ....  0.200000
   Scaling of DF-GGA-X  ScalDFX         ....  0.720000
   Scaling of DF-GGA-C  ScalDFC         ....  0.810000
   Scaling of DF-LDA-C  ScalLDAC        ....  1.000000
   Perturbative correction              ....  0.000000
   NL short-range parameter             ....  4.800000
 RI-approximation to the Coulomb term is turned on
   Number of AuxJ basis functions       .... 147
   RIJ-COSX (HFX calculated with COS-X)).... on


General Settings:
 Integral files         IntName         .... co2_opt
 Hartree-Fock type      HFTyp           .... RHF
 Total Charge           Charge          ....    0
 Multiplicity           Mult            ....    1
 Number of Electrons    NEL             ....   22
 Basis Dimension        Dim             ....  117
 Nuclear Repulsion      ENuc            ....     56.4455688853 Eh

Convergence Acceleration:
 AO-DIIS                CNVDIIS         .... on
   Start iteration      DIISMaxIt       ....    12
   Startup error        DIISStart       ....  0.200000
   # of expansion vecs  DIISMaxEq       ....     5
   Bias factor          DIISBfac        ....   1.050
   Max. coefficient     DIISMaxC        ....  10.000
 MO-DIIS                CNVKDIIS        .... off
 Trust-Rad. Augm. Hess. CNVTRAH         .... auto
   Auto Start mean grad. ratio tolernc. ....  1.125000
   Auto Start start iteration           ....    50
   Auto Start num. interpolation iter.  ....    10
   Max. Number of Micro iterations      ....    24
   Max. Number of Macro iterations      .... Maxiter - #DIIS iter
   Number of Davidson start vectors     ....     2
   Converg. threshold    (grad. norm)   ....   1.000e-05
   Grad. Scal. Fac. for Micro threshold ....   0.100
   Minimum threshold for Micro iter.    ....   1.000e-02
   NR start threshold (gradient norm)   ....   1.000e-04
   Initial trust radius                 ....   0.400
   Minimum AH scaling param. (alpha)    ....   1.000
   Maximum AH scaling param. (alpha)    .... 1000.000
   Quad. conv. algorithm                .... NR
   White noise on init. David. guess    .... on
   Maximum white noise                  ....   0.010
   Pseudo random numbers                .... off
   Inactive MOs                         .... canonical
   Orbital update algorithm             .... Taylor
   Preconditioner                       .... Diag
   Full preconditioner red. dimension   ....   250
 SOSCF                  CNVSOSCF        .... on
   Start iteration      SOSCFMaxIt      ....   150
   Startup grad/error   SOSCFStart      ....  0.003300
   Hessian update       SOSCFHessUp     .... L-BFGS
 Level Shifting         CNVShift        .... on
   Level shift para.    LevelShift      ....    0.2500
   Turn off err/grad.   ShiftErr        ....    0.0010
 Zerner damping         CNVZerner       .... off
 Static damping         CNVDamp         .... on
   Fraction old density DampFac         ....    0.7000
   Max. Damping (<1)    DampMax         ....    0.9800
   Min. Damping (>=0)   DampMin         ....    0.0000
   Turn off err/grad.   DampErr         ....    0.1000

SCF Procedure:
 Maximum # iterations   MaxIter         ....   125
 SCF integral mode      SCFMode         .... Direct
   Integral package                     .... SHARK and LIBINT hybrid scheme
 Reset frequency        DirectResetFreq ....    20
 Integral Threshold     Thresh          ....  2.500e-11 Eh
 Primitive CutOff       TCut            ....  2.500e-12 Eh

Convergence Tolerance:
 Convergence Check Mode ConvCheckMode   .... Total+1el-Energy
 Convergence forced     ConvForced      .... 0
 Energy Change          TolE            ....  1.000e-08 Eh
 1-El. energy change                    ....  1.000e-05 Eh
 Orbital Gradient       TolG            ....  1.000e-05
 Orbital Rotation angle TolX            ....  1.000e-05
 DIIS Error             TolErr          ....  5.000e-07

------------------------------
INITIAL GUESS: MODEL POTENTIAL
------------------------------
Loading Hartree-Fock densities                     ... done
Calculating cut-offs                               ... done
Initializing the effective Hamiltonian             ... done
Setting up the integral package (SHARK)            ... done
Starting the Coulomb interaction                   ... done (   0.0 sec)
Making the grid                                    ... done (   0.0 sec)
Mapping shells                                     ... done
Starting the XC term evaluation                    ... done (   0.0 sec)
  promolecular density results
     # of electrons  =     22.000102180
     EX              =    -21.472338776
     EC              =     -0.784627063
     EX+EC           =    -22.256965840
Transforming the Hamiltonian                       ... done (   0.0 sec)
Diagonalizing the Hamiltonian                      ... done (   0.0 sec)
Back transforming the eigenvectors                 ... done (   0.0 sec)
Now organizing SCF variables                       ... done
                      ------------------
                      INITIAL GUESS DONE (   0.1 sec)
                      ------------------
             **** ENERGY FILE WAS UPDATED (co2_opt.en.tmp) ****
Finished Guess after   0.1 sec
Maximum memory used throughout the entire GUESS-calculation: 9.9 MB

-------------------------------------------------------------------------------------------
                                      ORCA LEAN-SCF
                              memory conserving SCF solver
-------------------------------------------------------------------------------------------

----------------------------------------D-I-I-S--------------------------------------------
Iteration    Energy (Eh)           Delta-E    RMSDP     MaxDP     DIISErr   Damp  Time(sec)
-------------------------------------------------------------------------------------------
               ***  Starting incremental Fock matrix formation  ***
    1    -188.4536600969291840     0.00e+00  2.42e-03  4.37e-02  2.32e-01  0.700   0.7
    2    -188.5210297751031590    -6.74e-02  1.27e-03  2.71e-02  8.45e-02  0.700   0.4
                               ***Turning on AO-DIIS***
    3    -188.5380988911823010    -1.71e-02  3.96e-04  1.07e-02  1.74e-02  0.700   0.4
    4    -188.5507820686232776    -1.27e-02  6.17e-04  1.92e-02  1.57e-02  0.000   0.4
    5    -188.5821251491288990    -3.13e-02  1.42e-04  3.27e-03  7.27e-03  0.000   0.4
                              *** Initializing SOSCF ***
---------------------------------------S-O-S-C-F--------------------------------------
Iteration    Energy (Eh)           Delta-E    RMSDP     MaxDP     MaxGrad    Time(sec)
--------------------------------------------------------------------------------------
    6    -188.5822641723771653    -1.39e-04  3.79e-05  4.46e-04  1.13e-03     0.4
               *** Restarting incremental Fock matrix formation ***
    7    -188.5822875553710105    -2.34e-05  2.15e-05  3.75e-04  2.09e-04     0.7
    8    -188.5822876897668721    -1.34e-07  1.09e-05  1.99e-04  2.36e-04     0.7
    9    -188.5822881567703462    -4.67e-07  6.88e-06  1.47e-04  8.04e-05     0.6
   10    -188.5822882007412318    -4.40e-08  1.74e-06  4.25e-05  2.90e-05     0.6
   11    -188.5822882145960193    -1.39e-08  5.35e-07  8.73e-06  5.56e-06     0.6
   12    -188.5822882154603803    -8.64e-10  1.69e-07  3.29e-06  1.06e-06     0.6
                 **** Energy Check signals convergence ****

               *****************************************************
               *                     SUCCESS                       *
               *           SCF CONVERGED AFTER  12 CYCLES          *
               *****************************************************

Recomputing exchange energy using gridx3       ... done (    1.158 sec)
Old exchange energy                            :     -4.299342906 Eh
New exchange energy                            :     -4.299347051 Eh
Exchange energy change after final integration :     -0.000004144 Eh
Total energy after final integration           :   -188.582292360 Eh
             **** ENERGY FILE WAS UPDATED (co2_opt.en.tmp) ****

----------------
TOTAL SCF ENERGY
----------------

Total Energy       :       -188.58229235959723 Eh           -5131.58506 eV

Components:
Nuclear Repulsion  :         56.44556888533334 Eh            1535.96202 eV
Electronic Energy  :       -245.02785710079374 Eh           -6667.54696 eV
One Electron Energy:       -369.11901901400057 Eh          -10044.23915 eV
Two Electron Energy:        124.09116191320683 Eh            3376.69218 eV

Virial components:
Potential Energy   :       -376.13196782904049 Eh          -10235.07119 eV
Kinetic Energy     :        187.54967546944329 Eh            5103.48613 eV
Virial Ratio       :          2.00550583138877

DFT components:
N(Alpha)           :       10.999978633715 electrons
N(Beta)            :       10.999978633715 electrons
N(Total)           :       21.999957267429 electrons
E(X)               :      -17.180279094517 Eh       
E(C)               :       -0.927033178103 Eh       
E(XC)              :      -18.107312272620 Eh       

---------------
SCF CONVERGENCE
---------------

  Last Energy change         ...    8.6436e-10  Tolerance :   1.0000e-08
  Last MAX-Density change    ...    3.2913e-06  Tolerance :   1.0000e-07
  Last RMS-Density change    ...    1.6911e-07  Tolerance :   5.0000e-09
  Last DIIS Error            ...    1.1335e-03  Tolerance :   5.0000e-07
  Last Orbital Gradient      ...    1.0600e-06  Tolerance :   1.0000e-05
  Last Orbital Rotation      ...    1.0452e-06  Tolerance :   1.0000e-05


----------------
ORBITAL ENERGIES
----------------

  NO   OCC          E(Eh)            E(eV) 
   0   2.0000     -19.221641      -523.0474 
   1   2.0000     -19.221632      -523.0472 
   2   2.0000     -10.380393      -282.4649 
   3   2.0000      -1.151041       -31.3214 
   4   2.0000      -1.111366       -30.2418 
   5   2.0000      -0.577335       -15.7101 
   6   2.0000      -0.526822       -14.3356 
   7   2.0000      -0.511584       -13.9209 
   8   2.0000      -0.511584       -13.9209 
   9   2.0000      -0.379825       -10.3356 
  10   2.0000      -0.379825       -10.3356 
  11   0.0000      -0.023050        -0.6272 
  12   0.0000      -0.002049        -0.0558 
  13   0.0000      -0.002049        -0.0558 
  14   0.0000       0.055778         1.5178 
  15   0.0000       0.057716         1.5705 
  16   0.0000       0.057716         1.5705 
  17   0.0000       0.083270         2.2659 
  18   0.0000       0.103232         2.8091 
  19   0.0000       0.103232         2.8091 
  20   0.0000       0.115870         3.1530 
  21   0.0000       0.178128         4.8471 
*Only the first 10 virtual orbitals were printed.

                    ********************************
                    * MULLIKEN POPULATION ANALYSIS *
                    ********************************

-----------------------
MULLIKEN ATOMIC CHARGES
-----------------------
   0 C :    0.698760
   1 O :   -0.349379
   2 O :   -0.349380
Sum of atomic charges:   -0.0000000

--------------------------------
MULLIKEN REDUCED ORBITAL CHARGES
--------------------------------
  0 C s       :     2.775788  s :     2.775788
      pz      :     0.735565  p :     2.283913
      px      :     0.812782
      py      :     0.735565
      dz2     :     0.001192  d :     0.209255
      dxz     :     0.102244
      dyz     :     0.000000
      dx2y2   :     0.003576
      dxy     :     0.102244
      f0      :     0.004051  f :     0.032285
      f+1     :     0.004005
      f-1     :     0.000675
      f+2     :     0.006751
      f-2     :    -0.000000
      f+3     :     0.006676
      f-3     :     0.010127

  1 O s       :     3.957679  s :     3.957679
      pz      :     1.560949  p :     4.344699
      px      :     1.222802
      py      :     1.560949
      dz2     :     0.004258  d :     0.045468
      dxz     :     0.014217
      dyz     :     0.000000
      dx2y2   :     0.012775
      dxy     :     0.014217
      f0      :     0.000198  f :     0.001533
      f+1     :     0.000179
      f-1     :     0.000033
      f+2     :     0.000330
      f-2     :     0.000000
      f+3     :     0.000298
      f-3     :     0.000495

  2 O s       :     3.957679  s :     3.957679
      pz      :     1.560949  p :     4.344700
      px      :     1.222802
      py      :     1.560949
      dz2     :     0.004258  d :     0.045468
      dxz     :     0.014217
      dyz     :     0.000000
      dx2y2   :     0.012775
      dxy     :     0.014217
      f0      :     0.000198  f :     0.001533
      f+1     :     0.000179
      f-1     :     0.000033
      f+2     :     0.000330
      f-2     :     0.000000
      f+3     :     0.000298
      f-3     :     0.000495


------------------------
MULLIKEN OVERLAP CHARGES
------------------------
B(  0-C ,  1-O ) :   0.8914 B(  0-C ,  2-O ) :   0.8914 


                     *******************************
                     * LOEWDIN POPULATION ANALYSIS *
                     *******************************

----------------------
LOEWDIN ATOMIC CHARGES
----------------------
   0 C :   -0.335964
   1 O :    0.167982
   2 O :    0.167982

-------------------------------
LOEWDIN REDUCED ORBITAL CHARGES
-------------------------------
  0 C s       :     2.698119  s :     2.698119
      pz      :     0.695091  p :     2.421804
      px      :     1.031621
      py      :     0.695091
      dz2     :     0.093782  d :     1.097284
      dxz     :     0.361079
      dyz     :     0.000000
      dx2y2   :     0.281345
      dxy     :     0.361079
      f0      :     0.013127  f :     0.118758
      f+1     :     0.018281
      f-1     :     0.002188
      f+2     :     0.021878
      f-2     :     0.000000
      f+3     :     0.030468
      f-3     :     0.032817

  1 O s       :     3.387444  s :     3.387444
      pz      :     1.408706  p :     4.264475
      px      :     1.447064
      py      :     1.408706
      dz2     :     0.021370  d :     0.174399
      dxz     :     0.044459
      dyz     :     0.000000
      dx2y2   :     0.064111
      dxy     :     0.044459
      f0      :     0.000468  f :     0.005699
      f+1     :     0.001201
      f-1     :     0.000078
      f+2     :     0.000780
      f-2     :     0.000000
      f+3     :     0.002002
      f-3     :     0.001170

  2 O s       :     3.387444  s :     3.387444
      pz      :     1.408706  p :     4.264476
      px      :     1.447064
      py      :     1.408706
      dz2     :     0.021370  d :     0.174399
      dxz     :     0.044459
      dyz     :     0.000000
      dx2y2   :     0.064111
      dxy     :     0.044459
      f0      :     0.000468  f :     0.005699
      f+1     :     0.001201
      f-1     :     0.000078
      f+2     :     0.000780
      f-2     :     0.000000
      f+3     :     0.002002
      f-3     :     0.001170


---------------------------------
LOEWDIN BOND ORDERS (THRESH 0.050000)
---------------------------------
B(  0-C ,  1-O ) :   2.9675 B(  0-C ,  2-O ) :   2.9675 B(  1-O ,  2-O ) :   0.5992 


------------------------------------------
LOEWDIN REDUCED ORBITAL POPULATIONS PER MO
-------------------------------------------
THRESHOLD FOR PRINTING IS 0.1%%
                      0         1         2         3         4         5   
                 -19.22164 -19.22163 -10.38039  -1.15104  -1.11137  -0.57734
                   2.00000   2.00000   2.00000   2.00000   2.00000   2.00000
                  --------  --------  --------  --------  --------  --------
 0 C  s               0.0       0.0      98.6      25.8       0.0      10.5
 0 C  px              0.0       0.1       0.0       0.0      37.4       0.0
 0 C  dz2             0.1       0.0       0.0       2.5       0.0       2.1
 0 C  dx2y2           0.3       0.0       0.0       7.4       0.0       6.4
 0 C  f+1             0.0       0.1       0.0       0.0       0.8       0.0
 0 C  f+3             0.0       0.2       0.0       0.0       1.3       0.0
 1 O  s              48.4      51.1       0.0      24.1      26.8      10.4
 1 O  px              0.0       0.0       0.2       6.2       2.7      29.2
 1 O  dz2             0.0       0.0       0.1       0.5       0.2       0.2
 1 O  dx2y2           0.0       0.0       0.3       1.4       0.5       0.6
 2 O  s              51.2      48.4       0.0      24.1      26.8      10.4
 2 O  px              0.0       0.0       0.2       6.2       2.7      29.2
 2 O  dz2             0.0       0.0       0.1       0.5       0.2       0.2
 2 O  dx2y2           0.0       0.0       0.3       1.4       0.5       0.6

                      6         7         8         9        10        11   
                  -0.52682  -0.51158  -0.51158  -0.37983  -0.37983  -0.02305
                   2.00000   2.00000   2.00000   2.00000   2.00000   0.00000
                  --------  --------  --------  --------  --------  --------
 0 C  s               0.0       0.0       0.0       0.0       0.0      54.4
 0 C  pz              0.0      34.3       0.5       0.0       0.0       0.0
 0 C  px             14.0       0.0       0.0       0.0       0.0       0.0
 0 C  py              0.0       0.5      34.3       0.0       0.0       0.0
 0 C  dz2             0.0       0.0       0.0       0.0       0.0       3.4
 0 C  dxz             0.0       0.0       0.0       0.2      17.9       0.0
 0 C  dx2y2           0.0       0.0       0.0       0.0       0.0      10.2
 0 C  dxy             0.0       0.0       0.0      17.9       0.2       0.0
 0 C  f0              0.0       0.6       0.0       0.0       0.0       0.0
 0 C  f-1             0.0       0.0       0.1       0.0       0.0       0.0
 0 C  f+2             0.0       1.1       0.0       0.0       0.0       0.0
 0 C  f-3             0.0       0.0       1.6       0.0       0.0       0.0
 1 O  s               8.5       0.0       0.0       0.0       0.0      13.8
 1 O  pz              0.0      29.3       0.4       0.4      40.3       0.0
 1 O  px             34.0       0.0       0.0       0.0       0.0       1.8
 1 O  py              0.0       0.4      29.3      40.3       0.4       0.0
 1 O  dz2             0.1       0.0       0.0       0.0       0.0       0.1
 1 O  dxz             0.0       1.9       0.0       0.0       0.3       0.0
 1 O  dx2y2           0.3       0.0       0.0       0.0       0.0       0.3
 1 O  dxy             0.0       0.0       1.9       0.3       0.0       0.0
 2 O  s               8.5       0.0       0.0       0.0       0.0      13.8
 2 O  pz              0.0      29.3       0.4       0.4      40.3       0.0
 2 O  px             34.0       0.0       0.0       0.0       0.0       1.8
 2 O  py              0.0       0.4      29.3      40.3       0.4       0.0
 2 O  dz2             0.1       0.0       0.0       0.0       0.0       0.1
 2 O  dxz             0.0       1.9       0.0       0.0       0.3       0.0
 2 O  dx2y2           0.3       0.0       0.0       0.0       0.0       0.3
 2 O  dxy             0.0       0.0       1.9       0.3       0.0       0.0

                     12        13        14        15        16        17   
                  -0.00205  -0.00205   0.05578   0.05772   0.05772   0.08327
                   0.00000   0.00000   0.00000   0.00000   0.00000   0.00000
                  --------  --------  --------  --------  --------  --------
 0 C  s               0.0       0.0       0.0       0.0       0.0       9.3
 0 C  pz             28.7       8.7       0.0       0.0       4.3       0.0
 0 C  px              0.0       0.0       1.0       0.0       0.0       0.0
 0 C  py              8.7      28.7       0.0       4.3       0.0       0.0
 0 C  dz2             0.0       0.0       0.0       0.0       0.0       1.3
 0 C  dx2y2           0.0       0.0       0.0       0.0       0.0       4.0
 0 C  f0              1.3       0.4       0.0       0.0       0.0       0.0
 0 C  f-1             0.1       0.2       0.0       0.0       0.0       0.0
 0 C  f+2             2.1       0.6       0.0       0.0       0.1       0.0
 0 C  f-3             1.0       3.2       0.0       0.1       0.0       0.0
 1 O  s               0.0       0.0       2.8       0.0       0.0       0.3
 1 O  pz             13.4       4.0       0.0       0.0      47.5       0.0
 1 O  px              0.0       0.0      46.6       0.0       0.0      42.1
 1 O  py              4.0      13.4       0.0      47.5       0.0       0.0
 1 O  dxz             8.7       2.6       0.0       0.0       0.3       0.0
 1 O  dx2y2           0.0       0.0       0.1       0.0       0.0       0.2
 1 O  dxy             2.6       8.7       0.0       0.3       0.0       0.0
 1 O  f0              0.1       0.0       0.0       0.0       0.0       0.0
 1 O  f+2             0.2       0.1       0.0       0.0       0.0       0.0
 1 O  f-3             0.1       0.3       0.0       0.0       0.0       0.0
 2 O  s               0.0       0.0       2.8       0.0       0.0       0.3
 2 O  pz             13.4       4.0       0.0       0.0      47.5       0.0
 2 O  px              0.0       0.0      46.6       0.0       0.0      42.1
 2 O  py              4.0      13.4       0.0      47.5       0.0       0.0
 2 O  dxz             8.7       2.6       0.0       0.0       0.3       0.0
 2 O  dx2y2           0.0       0.0       0.1       0.0       0.0       0.2
 2 O  dxy             2.6       8.7       0.0       0.3       0.0       0.0
 2 O  f0              0.1       0.0       0.0       0.0       0.0       0.0
 2 O  f+2             0.2       0.1       0.0       0.0       0.0       0.0
 2 O  f-3             0.1       0.3       0.0       0.0       0.0       0.0

                     18        19        20        21        22        23   
                   0.10323   0.10323   0.11587   0.17813   0.17813   0.19029
                   0.00000   0.00000   0.00000   0.00000   0.00000   0.00000
                  --------  --------  --------  --------  --------  --------
 0 C  s               0.0       0.0      40.6       0.0       0.0       0.0
 0 C  px              0.0       0.0       0.0       0.0       0.0      11.3
 0 C  dz2             0.0       0.0       4.2       0.0      57.8       0.0
 0 C  dxz             8.5       0.0       0.0       0.0       0.0       0.0
 0 C  dyz             0.0       0.0       0.0      77.0       0.0       0.0
 0 C  dx2y2           0.0       0.0      12.6       0.0      19.3       0.0
 0 C  dxy             0.0       8.5       0.0       0.0       0.0       0.0
 0 C  f+1             0.0       0.0       0.0       0.0       0.0       0.1
 0 C  f+3             0.0       0.0       0.0       0.0       0.0       0.2
 1 O  s               0.0       0.0       8.9       0.0       0.0      30.5
 1 O  pz             43.2       0.0       0.0       0.0       0.0       0.0
 1 O  px              0.0       0.0       8.0       0.0       0.0       4.8
 1 O  py              0.0      43.2       0.0       0.0       0.0       0.0
 1 O  dz2             0.0       0.0       1.1       0.0       8.6       2.2
 1 O  dxz             2.5       0.0       0.0       0.0       0.0       0.0
 1 O  dyz             0.0       0.0       0.0      11.5       0.0       0.0
 1 O  dx2y2           0.0       0.0       3.3       0.0       2.9       6.7
 1 O  dxy             0.0       2.5       0.0       0.0       0.0       0.0
 2 O  s               0.0       0.0       8.9       0.0       0.0      30.5
 2 O  pz             43.2       0.0       0.0       0.0       0.0       0.0
 2 O  px              0.0       0.0       8.0       0.0       0.0       4.8
 2 O  py              0.0      43.2       0.0       0.0       0.0       0.0
 2 O  dz2             0.0       0.0       1.1       0.0       8.6       2.2
 2 O  dxz             2.5       0.0       0.0       0.0       0.0       0.0
 2 O  dyz             0.0       0.0       0.0      11.5       0.0       0.0
 2 O  dx2y2           0.0       0.0       3.3       0.0       2.9       6.7
 2 O  dxy             0.0       2.5       0.0       0.0       0.0       0.0

                     24        25        26        27        28        29   
                   0.25291   0.30045   0.30045   0.32361   0.34140   0.34140
                   0.00000   0.00000   0.00000   0.00000   0.00000   0.00000
                  --------  --------  --------  --------  --------  --------
 0 C  s               9.8       0.0       0.0      25.4       0.0       0.0
 0 C  pz              0.0       0.1      78.5       0.0       0.0       0.0
 0 C  py              0.0      78.5       0.1       0.0       0.0       0.0
 0 C  dz2             2.1       0.0       0.0       9.6       0.0       0.0
 0 C  dxz             0.0       0.0       0.0       0.0      58.1      12.5
 0 C  dx2y2           6.3       0.0       0.0      28.7       0.0       0.0
 0 C  dxy             0.0       0.0       0.0       0.0      12.5      58.1
 1 O  s              23.4       0.0       0.0       2.3       0.0       0.0
 1 O  pz              0.0       0.0       7.3       0.0      11.2       2.4
 1 O  px             13.9       0.0       0.0       5.9       0.0       0.0
 1 O  py              0.0       7.3       0.0       0.0       2.4      11.2
 1 O  dz2             0.9       0.0       0.0       2.5       0.0       0.0
 1 O  dxz             0.0       0.0       3.3       0.0       0.9       0.2
 1 O  dx2y2           2.7       0.0       0.0       7.5       0.0       0.0
 1 O  dxy             0.0       3.3       0.0       0.0       0.2       0.9
 1 O  f-3             0.0       0.1       0.0       0.0       0.0       0.0
 2 O  s              23.4       0.0       0.0       2.3       0.0       0.0
 2 O  pz              0.0       0.0       7.3       0.0      11.2       2.4
 2 O  px             13.9       0.0       0.0       5.9       0.0       0.0
 2 O  py              0.0       7.3       0.0       0.0       2.4      11.2
 2 O  dz2             0.9       0.0       0.0       2.5       0.0       0.0
 2 O  dxz             0.0       0.0       3.3       0.0       0.9       0.2
 2 O  dx2y2           2.7       0.0       0.0       7.5       0.0       0.0
 2 O  dxy             0.0       3.3       0.0       0.0       0.2       0.9
 2 O  f-3             0.0       0.1       0.0       0.0       0.0       0.0

                     30        31        32        33        34        35   
                   0.37011   0.39951   0.39951   0.46178   0.46178   0.46460
                   0.00000   0.00000   0.00000   0.00000   0.00000   0.00000
                  --------  --------  --------  --------  --------  --------
 0 C  s               0.0       0.0       0.0       0.0       0.0       8.5
 0 C  pz              0.0       0.0       0.0       0.2      10.6       0.0
 0 C  px              4.4       0.0       0.0       0.0       0.0       0.0
 0 C  py              0.0       0.0       0.0      10.6       0.2       0.0
 0 C  dz2             0.0       0.0       0.0       0.0       0.0      10.1
 0 C  dx2y2           0.0       0.0       0.0       0.0       0.0      30.3
 0 C  f0              0.0       0.0       0.0       0.0       0.5       0.0
 0 C  f+1             0.0       0.0       0.5       0.0       0.0       0.0
 0 C  f+2             0.0       0.0       0.0       0.0       0.8       0.0
 0 C  f-2             0.0       0.7       0.0       0.0       0.0       0.0
 0 C  f+3             0.1       0.0       0.3       0.0       0.0       0.0
 0 C  f-3             0.0       0.0       0.0       1.1       0.0       0.0
 1 O  s               7.4       0.0       0.0       0.0       0.0       3.6
 1 O  pz              0.0       0.0       0.0       0.2      10.6       0.0
 1 O  px              6.0       0.0       0.0       0.0       0.0       1.7
 1 O  py              0.0       0.0       0.0      10.6       0.2       0.0
 1 O  dz2             8.6       0.0      37.2       0.0       0.0       5.1
 1 O  dxz             0.0       0.0       0.0       0.5      32.5       0.0
 1 O  dyz             0.0      49.6       0.0       0.0       0.0       0.0
 1 O  dx2y2          25.8       0.0      12.4       0.0       0.0      15.2
 1 O  dxy             0.0       0.0       0.0      32.5       0.5       0.0
 1 O  f0              0.0       0.0       0.0       0.0       0.1       0.0
 1 O  f+2             0.0       0.0       0.0       0.0       0.2       0.0
 1 O  f-3             0.0       0.0       0.0       0.3       0.0       0.0
 2 O  s               7.4       0.0       0.0       0.0       0.0       3.6
 2 O  pz              0.0       0.0       0.0       0.2      10.6       0.0
 2 O  px              6.0       0.0       0.0       0.0       0.0       1.7
 2 O  py              0.0       0.0       0.0      10.6       0.2       0.0
 2 O  dz2             8.6       0.0      37.2       0.0       0.0       5.1
 2 O  dxz             0.0       0.0       0.0       0.5      32.5       0.0
 2 O  dyz             0.0      49.6       0.0       0.0       0.0       0.0
 2 O  dx2y2          25.8       0.0      12.4       0.0       0.0      15.2
 2 O  dxy             0.0       0.0       0.0      32.5       0.5       0.0
 2 O  f0              0.0       0.0       0.0       0.0       0.1       0.0
 2 O  f+2             0.0       0.0       0.0       0.0       0.2       0.0
 2 O  f-3             0.0       0.0       0.0       0.3       0.0       0.0

                     36        37        38        39        40        41   
                   0.51722   0.51722   0.52057   0.52057   0.53955   0.65606
                   0.00000   0.00000   0.00000   0.00000   0.00000   0.00000
                  --------  --------  --------  --------  --------  --------
 0 C  s               0.0       0.0       0.0       0.0       0.0      40.9
 0 C  px              0.0       0.0       0.0       0.0      55.8       0.0
 0 C  dz2             0.0       0.0       0.0      24.6       0.0       1.5
 0 C  dxz             2.1       7.4       0.0       0.0       0.0       0.0
 0 C  dyz             0.0       0.0      32.8       0.0       0.0       0.0
 0 C  dx2y2           0.0       0.0       0.0       8.2       0.0       4.6
 0 C  dxy             7.4       2.1       0.0       0.0       0.0       0.0
 0 C  f+1             0.0       0.0       0.0       0.0       1.1       0.0
 0 C  f+3             0.0       0.0       0.0       0.0       1.8       0.0
 1 O  s               0.0       0.0       0.0       0.0      17.5       7.1
 1 O  pz              0.4       1.5       0.0       0.0       0.0       0.0
 1 O  px              0.0       0.0       0.0       0.0       0.8       6.7
 1 O  py              1.5       0.4       0.0       0.0       0.0       0.0
 1 O  dz2             0.0       0.0       0.0      25.2       0.6       3.1
 1 O  dxz             9.5      33.9       0.0       0.0       0.0       0.0
 1 O  dyz             0.0       0.0      33.6       0.0       0.0       0.0
 1 O  dx2y2           0.0       0.0       0.0       8.4       1.7       9.2
 1 O  dxy            33.9       9.5       0.0       0.0       0.0       0.0
 1 O  f+1             0.0       0.0       0.0       0.0       0.0       0.2
 1 O  f+3             0.0       0.0       0.0       0.0       0.0       0.3
 2 O  s               0.0       0.0       0.0       0.0      17.5       7.1
 2 O  pz              0.4       1.5       0.0       0.0       0.0       0.0
 2 O  px              0.0       0.0       0.0       0.0       0.8       6.7
 2 O  py              1.5       0.4       0.0       0.0       0.0       0.0
 2 O  dz2             0.0       0.0       0.0      25.2       0.6       3.1
 2 O  dxz             9.5      33.9       0.0       0.0       0.0       0.0
 2 O  dyz             0.0       0.0      33.6       0.0       0.0       0.0
 2 O  dx2y2           0.0       0.0       0.0       8.4       1.7       9.2
 2 O  dxy            33.9       9.5       0.0       0.0       0.0       0.0
 2 O  f+1             0.0       0.0       0.0       0.0       0.0       0.2
 2 O  f+3             0.0       0.0       0.0       0.0       0.0       0.3

                     42        43        44        45        46        47   
                   0.76497   0.82054   0.82054   0.82893   0.85997   0.85997
                   0.00000   0.00000   0.00000   0.00000   0.00000   0.00000
                  --------  --------  --------  --------  --------  --------
 0 C  s               0.0       0.0       0.0      14.5       0.0       0.0
 0 C  pz              0.0       0.0       0.0       0.0       0.9      26.4
 0 C  px             28.3       0.0       0.0       0.0       0.0       0.0
 0 C  py              0.0       0.0       0.0       0.0      26.4       0.9
 0 C  dz2             0.0       0.0      63.5       1.0       0.0       0.0
 0 C  dyz             0.0      84.6       0.0       0.0       0.0       0.0
 0 C  dx2y2           0.0       0.0      21.2       3.1       0.0       0.0
 0 C  f0              0.0       0.0       0.0       0.0       0.0       0.2
 0 C  f+1             0.5       0.0       0.0       0.0       0.0       0.0
 0 C  f+2             0.0       0.0       0.0       0.0       0.0       0.3
 0 C  f+3             0.8       0.0       0.0       0.0       0.0       0.0
 0 C  f-3             0.0       0.0       0.0       0.0       0.4       0.0
 1 O  s               3.4       0.0       0.0       5.8       0.0       0.0
 1 O  pz              0.0       0.0       0.0       0.0       1.1      30.2
 1 O  px             15.2       0.0       0.0      24.0       0.0       0.0
 1 O  py              0.0       0.0       0.0       0.0      30.2       1.1
 1 O  dz2             3.9       0.0       5.4       2.6       0.0       0.0
 1 O  dxz             0.0       0.0       0.0       0.0       0.2       4.2
 1 O  dyz             0.0       7.2       0.0       0.0       0.0       0.0
 1 O  dx2y2          11.7       0.0       1.8       7.9       0.0       0.0
 1 O  dxy             0.0       0.0       0.0       0.0       4.2       0.2
 1 O  f0              0.0       0.0       0.0       0.0       0.0       0.1
 1 O  f+1             0.4       0.0       0.3       0.1       0.0       0.0
 1 O  f+2             0.0       0.0       0.0       0.0       0.0       0.2
 1 O  f-2             0.0       0.5       0.0       0.0       0.0       0.0
 1 O  f+3             0.6       0.0       0.2       0.2       0.0       0.0
 1 O  f-3             0.0       0.0       0.0       0.0       0.4       0.0
 2 O  s               3.4       0.0       0.0       5.8       0.0       0.0
 2 O  pz              0.0       0.0       0.0       0.0       1.1      30.2
 2 O  px             15.2       0.0       0.0      24.0       0.0       0.0
 2 O  py              0.0       0.0       0.0       0.0      30.2       1.1
 2 O  dz2             3.9       0.0       5.4       2.6       0.0       0.0
 2 O  dxz             0.0       0.0       0.0       0.0       0.2       4.2
 2 O  dyz             0.0       7.2       0.0       0.0       0.0       0.0
 2 O  dx2y2          11.7       0.0       1.8       7.9       0.0       0.0
 2 O  dxy             0.0       0.0       0.0       0.0       4.2       0.2
 2 O  f0              0.0       0.0       0.0       0.0       0.0       0.1
 2 O  f+1             0.4       0.0       0.3       0.1       0.0       0.0
 2 O  f+2             0.0       0.0       0.0       0.0       0.0       0.2
 2 O  f-2             0.0       0.5       0.0       0.0       0.0       0.0
 2 O  f+3             0.6       0.0       0.2       0.2       0.0       0.0
 2 O  f-3             0.0       0.0       0.0       0.0       0.4       0.0

                     48        49        50        51        52        53   
                   0.86543   0.87901   0.87901   1.03824   1.13764   1.13947
                   0.00000   0.00000   0.00000   0.00000   0.00000   0.00000
                  --------  --------  --------  --------  --------  --------
 0 C  s               0.0       0.0       0.0       0.0      17.1       0.0
 0 C  px             12.7       0.0       0.0      27.0       0.0       0.0
 0 C  dz2             0.0       0.0       0.0       0.0       1.8       0.0
 0 C  dxz             0.0      21.2       4.6       0.0       0.0      14.0
 0 C  dx2y2           0.0       0.0       0.0       0.0       5.3       0.0
 0 C  dxy             0.0       4.6      21.2       0.0       0.0      25.8
 0 C  f+1             2.5       0.0       0.0       4.2       0.0       0.0
 0 C  f+3             4.1       0.0       0.0       6.9       0.0       0.0
 1 O  s               4.5       0.0       0.0      25.0      29.9       0.0
 1 O  pz              0.0      30.1       6.5       0.0       0.0       2.4
 1 O  px             32.6       0.0       0.0       0.9       0.8       0.0
 1 O  py              0.0       6.5      30.1       0.0       0.0       4.3
 1 O  dz2             0.8       0.0       0.0       1.3       1.8       0.0
 1 O  dxz             0.0       0.4       0.1       0.0       0.0       8.0
 1 O  dx2y2           2.4       0.0       0.0       3.8       5.4       0.0
 1 O  dxy             0.0       0.1       0.4       0.0       0.0      14.8
 1 O  f+2             0.0       0.0       0.0       0.0       0.0       0.1
 1 O  f-3             0.0       0.0       0.0       0.0       0.0       0.3
 2 O  s               4.5       0.0       0.0      25.0      29.9       0.0
 2 O  pz              0.0      30.1       6.5       0.0       0.0       2.4
 2 O  px             32.6       0.0       0.0       0.9       0.8       0.0
 2 O  py              0.0       6.5      30.1       0.0       0.0       4.3
 2 O  dz2             0.8       0.0       0.0       1.3       1.8       0.0
 2 O  dxz             0.0       0.4       0.1       0.0       0.0       8.0
 2 O  dx2y2           2.4       0.0       0.0       3.8       5.4       0.0
 2 O  dxy             0.0       0.1       0.4       0.0       0.0      14.8
 2 O  f+2             0.0       0.0       0.0       0.0       0.0       0.1
 2 O  f-3             0.0       0.0       0.0       0.0       0.0       0.3

                     54        55        56        57        58        59   
                   1.13947   1.57066   1.57066   1.60516   1.60519   1.71917
                   0.00000   0.00000   0.00000   0.00000   0.00000   0.00000
                  --------  --------  --------  --------  --------  --------
 0 C  s               0.0       0.0       0.0       0.0       0.0      41.5
 0 C  pz              0.0      22.8      64.0       0.0       0.0       0.0
 0 C  py              0.0      64.0      22.8       0.0       0.0       0.0
 0 C  dz2             0.0       0.0       0.0       0.0       0.0       8.2
 0 C  dxz            25.8       0.0       0.0       0.0       0.0       0.0
 0 C  dx2y2           0.0       0.0       0.0       0.0       0.0      24.6
 0 C  dxy            14.0       0.0       0.0       0.0       0.0       0.0
 0 C  f0              0.0       0.3       1.0       0.0       0.0       0.0
 0 C  f+1             0.0       0.0       0.0       0.0       7.8       0.0
 0 C  f-1             0.0       0.2       0.1       0.0       0.0       0.0
 0 C  f+2             0.0       0.6       1.6       0.0       0.0       0.0
 0 C  f-2             0.0       0.0       0.0      12.5       0.0       0.0
 0 C  f+3             0.0       0.0       0.0       0.0       4.7       0.0
 0 C  f-3             0.0       2.4       0.9       0.0       0.0       0.0
 1 O  s               0.0       0.0       0.0       0.0       0.0       6.6
 1 O  pz              4.3       0.7       1.9       0.0       0.0       0.0
 1 O  px              0.0       0.0       0.0       0.0       0.0       5.6
 1 O  py              2.4       1.9       0.7       0.0       0.0       0.0
 1 O  dz2             0.0       0.0       0.0       0.0      32.8       0.1
 1 O  dxz            14.8       0.6       1.6       0.0       0.0       0.0
 1 O  dyz             0.0       0.0       0.0      43.7       0.0       0.0
 1 O  dx2y2           0.0       0.0       0.0       0.0      10.9       0.2
 1 O  dxy             8.0       1.6       0.6       0.0       0.0       0.0
 1 O  f0              0.1       0.0       0.0       0.0       0.0       0.0
 1 O  f+1             0.0       0.0       0.0       0.0       0.0       0.2
 1 O  f+2             0.2       0.0       0.1       0.0       0.0       0.0
 1 O  f+3             0.0       0.0       0.0       0.0       0.0       0.3
 1 O  f-3             0.2       0.1       0.0       0.0       0.0       0.0
 2 O  s               0.0       0.0       0.0       0.0       0.0       6.6
 2 O  pz              4.3       0.7       1.9       0.0       0.0       0.0
 2 O  px              0.0       0.0       0.0       0.0       0.0       5.6
 2 O  py              2.4       1.9       0.7       0.0       0.0       0.0
 2 O  dz2             0.0       0.0       0.0       0.0      32.8       0.1
 2 O  dxz            14.8       0.6       1.6       0.0       0.0       0.0
 2 O  dyz             0.0       0.0       0.0      43.7       0.0       0.0
 2 O  dx2y2           0.0       0.0       0.0       0.0      10.9       0.2
 2 O  dxy             8.0       1.6       0.6       0.0       0.0       0.0
 2 O  f0              0.1       0.0       0.0       0.0       0.0       0.0
 2 O  f+1             0.0       0.0       0.0       0.0       0.0       0.2
 2 O  f+2             0.2       0.0       0.1       0.0       0.0       0.0
 2 O  f+3             0.0       0.0       0.0       0.0       0.0       0.3
 2 O  f-3             0.2       0.1       0.0       0.0       0.0       0.0

                     60        61        62        63        64        65   
                   1.79112   1.79115   1.81440   1.86001   1.86001   2.08119
                   0.00000   0.00000   0.00000   0.00000   0.00000   0.00000
                  --------  --------  --------  --------  --------  --------
 0 C  s               0.0       0.0       0.0       0.0       0.0      17.1
 0 C  pz              0.0       0.0       0.0       0.1       5.2       0.0
 0 C  px              0.0       0.0      49.0       0.0       0.0       0.0
 0 C  py              0.0       0.0       0.0       5.2       0.1       0.0
 0 C  dz2             0.0       3.6       0.0       0.0       0.0       3.8
 0 C  dyz             4.8       0.0       0.0       0.0       0.0       0.0
 0 C  dx2y2           0.0       1.2       0.0       0.0       0.0      11.3
 0 C  f0              0.0       0.0       0.0       0.1       5.4       0.0
 0 C  f+1             0.0       0.0       6.9       0.0       0.0       0.0
 0 C  f-1             0.0       0.0       0.0       0.9       0.0       0.0
 0 C  f+2             0.0       0.0       0.0       0.2       8.9       0.0
 0 C  f+3             0.0       0.0      11.5       0.0       0.0       0.0
 0 C  f-3             0.0       0.0       0.0      13.4       0.2       0.0
 1 O  s               0.0       0.0       8.2       0.0       0.0       4.4
 1 O  pz              0.0       0.0       0.0       0.0       1.2       0.0
 1 O  px              0.0       0.0       5.5       0.0       0.0      15.7
 1 O  py              0.0       0.0       0.0       1.2       0.0       0.0
 1 O  dz2             0.0      35.7       0.1       0.0       0.0       3.3
 1 O  dxz             0.0       0.0       0.0       0.7      37.4       0.0
 1 O  dyz            47.6       0.0       0.0       0.0       0.0       0.0
 1 O  dx2y2           0.0      11.9       0.4       0.0       0.0      10.0
 1 O  dxy             0.0       0.0       0.0      37.4       0.7       0.0
 1 O  f0              0.0       0.0       0.0       0.0       0.3       0.0
 1 O  f+1             0.0       0.0       0.8       0.0       0.0       0.2
 1 O  f+2             0.0       0.0       0.0       0.0       0.5       0.0
 1 O  f+3             0.0       0.0       1.3       0.0       0.0       0.3
 1 O  f-3             0.0       0.0       0.0       0.7       0.0       0.0
 2 O  s               0.0       0.0       8.2       0.0       0.0       4.4
 2 O  pz              0.0       0.0       0.0       0.0       1.2       0.0
 2 O  px              0.0       0.0       5.5       0.0       0.0      15.7
 2 O  py              0.0       0.0       0.0       1.2       0.0       0.0
 2 O  dz2             0.0      35.7       0.1       0.0       0.0       3.3
 2 O  dxz             0.0       0.0       0.0       0.7      37.4       0.0
 2 O  dyz            47.6       0.0       0.0       0.0       0.0       0.0
 2 O  dx2y2           0.0      11.9       0.4       0.0       0.0      10.0
 2 O  dxy             0.0       0.0       0.0      37.4       0.7       0.0
 2 O  f0              0.0       0.0       0.0       0.0       0.3       0.0
 2 O  f+1             0.0       0.0       0.8       0.0       0.0       0.2
 2 O  f+2             0.0       0.0       0.0       0.0       0.5       0.0
 2 O  f+3             0.0       0.0       1.3       0.0       0.0       0.3
 2 O  f-3             0.0       0.0       0.0       0.7       0.0       0.0

                     66        67        68        69        70        71   
                   2.29140   2.36665   2.36665   2.42656   2.57470   2.57470
                   0.00000   0.00000   0.00000   0.00000   0.00000   0.00000
                  --------  --------  --------  --------  --------  --------
 0 C  s               0.0       0.0       0.0      37.4       0.0       0.0
 0 C  px             11.9       0.0       0.0       0.0       0.0       0.0
 0 C  dz2             0.0       0.0       0.0       3.3       0.0       0.0
 0 C  dxz             0.0       4.0      22.2       0.0       0.0       0.0
 0 C  dx2y2           0.0       0.0       0.0       9.9       0.0       0.0
 0 C  dxy             0.0      22.2       4.0       0.0       0.0       0.0
 0 C  f0              0.0       0.0       0.0       0.0      21.0      40.8
 0 C  f-1             0.0       0.0       0.0       0.0      61.3      31.5
 0 C  f+2             0.0       0.0       0.0       0.0      12.6      24.5
 0 C  f+3             0.1       0.0       0.0       0.0       0.0       0.0
 0 C  f-3             0.0       0.0       0.0       0.0       4.1       2.1
 1 O  s               2.5       0.0       0.0       3.9       0.0       0.0
 1 O  pz              0.0       1.9      10.3       0.0       0.0       0.0
 1 O  px             16.4       0.0       0.0       2.1       0.0       0.0
 1 O  py              0.0      10.3       1.9       0.0       0.0       0.0
 1 O  dz2             5.9       0.0       0.0       3.0       0.0       0.0
 1 O  dxz             0.0       3.6      20.3       0.0       0.0       0.0
 1 O  dx2y2          17.7       0.0       0.0       8.9       0.0       0.0
 1 O  dxy             0.0      20.3       3.6       0.0       0.0       0.0
 1 O  f0              0.0       0.0       0.3       0.0       0.1       0.2
 1 O  f+1             0.6       0.0       0.0       2.5       0.0       0.0
 1 O  f-1             0.0       0.0       0.0       0.0       0.3       0.2
 1 O  f+2             0.0       0.1       0.4       0.0       0.1       0.1
 1 O  f+3             0.9       0.0       0.0       4.2       0.0       0.0
 1 O  f-3             0.0       0.7       0.1       0.0       0.0       0.0
 2 O  s               2.5       0.0       0.0       3.9       0.0       0.0
 2 O  pz              0.0       1.9      10.3       0.0       0.0       0.0
 2 O  px             16.4       0.0       0.0       2.1       0.0       0.0
 2 O  py              0.0      10.3       1.9       0.0       0.0       0.0
 2 O  dz2             5.9       0.0       0.0       3.0       0.0       0.0
 2 O  dxz             0.0       3.6      20.3       0.0       0.0       0.0
 2 O  dx2y2          17.7       0.0       0.0       8.9       0.0       0.0
 2 O  dxy             0.0      20.3       3.6       0.0       0.0       0.0
 2 O  f0              0.0       0.0       0.3       0.0       0.1       0.2
 2 O  f+1             0.6       0.0       0.0       2.5       0.0       0.0
 2 O  f-1             0.0       0.0       0.0       0.0       0.3       0.2
 2 O  f+2             0.0       0.1       0.4       0.0       0.1       0.1
 2 O  f+3             0.9       0.0       0.0       4.2       0.0       0.0
 2 O  f-3             0.0       0.7       0.1       0.0       0.0       0.0

                     72        73        74        75        76        77   
                   2.79012   2.79012   2.86750   2.86751   2.89237   2.89237
                   0.00000   0.00000   0.00000   0.00000   0.00000   0.00000
                  --------  --------  --------  --------  --------  --------
 0 C  pz              0.5       2.4       0.0       0.0       0.0       0.0
 0 C  py              2.4       0.5       0.0       0.0       0.0       0.0
 0 C  dxz             0.0       0.0       0.0       0.0      38.6       7.9
 0 C  dxy             0.0       0.0       0.0       0.0       7.9      38.6
 0 C  f0              0.7       3.2       0.0       0.0       0.0       0.0
 0 C  f+1             0.0       0.0       0.0      47.7       0.0       0.0
 0 C  f-1             0.5       0.1       0.0       0.0       0.0       0.0
 0 C  f+2             1.2       5.4       0.0       0.0       0.0       0.0
 0 C  f-2             0.0       0.0      76.3       0.0       0.0       0.0
 0 C  f+3             0.0       0.0       0.0      28.6       0.0       0.0
 0 C  f-3             8.1       1.8       0.0       0.0       0.0       0.0
 1 O  pz              7.9      35.2       0.0       0.0      20.7       4.2
 1 O  py             35.2       7.9       0.0       0.0       4.2      20.7
 1 O  dz2             0.0       0.0       0.0       4.7       0.0       0.0
 1 O  dxz             0.0       0.1       0.0       0.0       0.8       0.2
 1 O  dyz             0.0       0.0       6.2       0.0       0.0       0.0
 1 O  dx2y2           0.0       0.0       0.0       1.6       0.0       0.0
 1 O  dxy             0.1       0.0       0.0       0.0       0.2       0.8
 1 O  f0              0.0       0.0       0.0       0.0       0.3       0.1
 1 O  f+1             0.0       0.0       0.0       3.5       0.0       0.0
 1 O  f+2             0.0       0.0       0.0       0.0       0.5       0.1
 1 O  f-2             0.0       0.0       5.6       0.0       0.0       0.0
 1 O  f+3             0.0       0.0       0.0       2.1       0.0       0.0
 1 O  f-3             0.0       0.0       0.0       0.0       0.1       0.7
 2 O  pz              7.9      35.2       0.0       0.0      20.7       4.2
 2 O  py             35.2       7.9       0.0       0.0       4.2      20.7
 2 O  dz2             0.0       0.0       0.0       4.7       0.0       0.0
 2 O  dxz             0.0       0.1       0.0       0.0       0.8       0.2
 2 O  dyz             0.0       0.0       6.2       0.0       0.0       0.0
 2 O  dx2y2           0.0       0.0       0.0       1.6       0.0       0.0
 2 O  dxy             0.1       0.0       0.0       0.0       0.2       0.8
 2 O  f0              0.0       0.0       0.0       0.0       0.3       0.1
 2 O  f+1             0.0       0.0       0.0       3.5       0.0       0.0
 2 O  f+2             0.0       0.0       0.0       0.0       0.5       0.1
 2 O  f-2             0.0       0.0       5.6       0.0       0.0       0.0
 2 O  f+3             0.0       0.0       0.0       2.1       0.0       0.0
 2 O  f-3             0.0       0.0       0.0       0.0       0.1       0.7

                     78        79        80        81        82        83   
                   2.97292   2.97294   3.13344   3.24038   3.33249   3.33249
                   0.00000   0.00000   0.00000   0.00000   0.00000   0.00000
                  --------  --------  --------  --------  --------  --------
 0 C  s               0.0       0.0       0.0       3.3       0.0       0.0
 0 C  px              0.0       0.0       1.6       0.0       0.0       0.0
 0 C  dz2            74.4       0.0       0.0       3.4       0.0       0.0
 0 C  dxz             0.0       0.0       0.0       0.0      33.5       2.8
 0 C  dyz             0.0      99.1       0.0       0.0       0.0       0.0
 0 C  dx2y2          24.8       0.0       0.0      10.3       0.0       0.0
 0 C  dxy             0.0       0.0       0.0       0.0       2.8      33.5
 0 C  f+1             0.0       0.0       0.8       0.0       0.0       0.0
[...]

GBWName                                 ... co2_opt.gbw
Number of atoms                         ...      3
Number of basis functions               ...    117
Max core memory                         ...   2000 MB

Electric properties:
Dipole moment                           ... YES
Quadrupole moment                       ...  NO
Static polarizability (Dipole/Dipole)   ... YES
Static polarizability (Dipole/Quad.)    ...  NO
Static polarizability (Quad./Quad.)     ...  NO
Static polarizability (Velocity)        ...  NO

Atomic electric properties:
Dipole moment                           ...  NO
Quadrupole moment                       ...  NO
Static polarizability                   ...  NO

Choice of electric origin               ... Center of mass
Position of electric origin             ...    -0.000001     0.000000    -0.000000

General magnetic properties:
Magnetizability                         ...  NO

EPR properties:
g-Tensor (aka g-matrix)                 ...  NO
Zero-Field splitting spin-orbit         ...  NO
Zero-field splitting spin-spin          ...  NO
Hyperfine couplings                     ...  NO (   0 nuclei)
Quadrupole couplings                    ...  NO (   0 nuclei)
Contact density                         ...  NO (   0 nuclei)

NMR properties:
Chemical shifts                         ...  NO (   0 nuclei)
Spin-rotation constants                 ...  NO (   0 nuclei)
Spin-spin couplings                     ...  NO (   0 nuclei,    0 pairs)

Choice of magnetic origin               ... GIAO
Position of magnetic origin             ...     0.000000     0.000000     0.000000

Properties with geometric perturbations:
SCF Hessian                             ...  NO
IR spectrum                             ...  NO
VCD spectrum                            ...  NO
X-ray spectroscopy properties:
SCF XES/XAS/RIXS spectra                ...  NO


-------------
DIPOLE MOMENT
-------------

Method             : SCF
Type of density    : Electron Density
Multiplicity       :   1
Irrep              :   0
Energy             :  -188.5882075651215359 Eh
Relativity type    : 
Basis              : AO
                                X                 Y                 Z
Electronic contribution:      0.000025601      -0.000001176       0.000000044
Nuclear contribution   :     -0.000000052       0.000000011      -0.000000000
                        -----------------------------------------
Total Dipole Moment    :      0.000025549      -0.000001165       0.000000044
                        -----------------------------------------
Magnitude (a.u.)       :      0.000025576
Magnitude (Debye)      :      0.000065008



--------------------
Rotational spectrum 
--------------------
 
Rotational constants in cm-1:             0.000000             0.391503             0.391503 
Rotational constants in MHz :             0.000000         11736.962291         11736.962291 

Dipole components along the rotational axes: 
x,y,z [a.u.] :     0.000026    -0.000001    -0.000000 
x,y,z [Debye]:     0.000065    -0.000003    -0.000000 

 

Dipole moment calculation done in   0.0 sec 


---------------------------------------------------
STATIC POLARIZABILITY TENSOR (Dipole/Dipole)
---------------------------------------------------

Method             : SCF
Type of density    : Electron Density
Type of derivative : Electric Field (Direction=X)
Multiplicity       :   1
Irrep              :   0
Relativity type    : 
Basis              : AO

The raw cartesian tensor (atomic units):
      26.031877904        -0.000002843        -0.000006464  
      -0.000002843        12.902153534        -0.000000181  
      -0.000006464        -0.000000181        12.902157605  
diagonalized tensor: 
      12.902153526        12.902157613        26.031877904  

Orientation: 
       0.000000238         0.000000482        -1.000000000  
       0.999011460        -0.044453375         0.000000217  
       0.044453375         0.999011460         0.000000492  

Isotropic polarizability :  17.27873


Polarizability tensor calculation done in   0.0 sec 

Maximum memory used throughout the entire PROP-calculation: 7.5 MB

----------------------------------------------------------------------------
                           ORCA NUMERICAL FREQUENCIES
----------------------------------------------------------------------------

Number of atoms                ... 3
Central differences            ... used
Number of displacements        ... 18
Numerical increment            ... 5.000e-03 bohr
IR-spectrum generation         ... on
Raman-spectrum generation      ... on
Polarizability calculation     ... 1
Surface Crossing Hessian       ... off

The output will be reduced. Please look at the following files:
SCF program output             ... >co2_opt.lastscf
Integral program output        ... >co2_opt.lastint
Gradient program output        ... >co2_opt.lastgrad
Dipole moment program output   ... >co2_opt.lastmom

	<< Calculating gradient on displaced geometry   1 (of  18) >>
	<< Calculating gradient on displaced geometry   2 (of  18) >>
	<< Calculating gradient on displaced geometry   3 (of  18) >>
	<< Calculating gradient on displaced geometry   4 (of  18) >>
	<< Calculating gradient on displaced geometry   5 (of  18) >>
	<< Calculating gradient on displaced geometry   6 (of  18) >>
	<< Calculating gradient on displaced geometry   7 (of  18) >>
	<< Calculating gradient on displaced geometry   8 (of  18) >>
	<< Calculating gradient on displaced geometry   9 (of  18) >>
	<< Calculating gradient on displaced geometry  10 (of  18) >>
	<< Calculating gradient on displaced geometry  11 (of  18) >>
	<< Calculating gradient on displaced geometry  12 (of  18) >>
	<< Calculating gradient on displaced geometry  13 (of  18) >>
	<< Calculating gradient on displaced geometry  14 (of  18) >>
	<< Calculating gradient on displaced geometry  15 (of  18) >>
	<< Calculating gradient on displaced geometry  16 (of  18) >>
	<< Calculating gradient on displaced geometry  17 (of  18) >>
	<< Calculating gradient on displaced geometry  18 (of  18) >>

-----------------------
VIBRATIONAL FREQUENCIES
-----------------------

Scaling factor for frequencies =  1.000000000  (already applied!)

     0:       0.00 cm**-1
     1:       0.00 cm**-1
     2:       0.00 cm**-1
     3:       0.00 cm**-1
     4:       0.00 cm**-1
     5:     669.89 cm**-1
     6:     669.91 cm**-1
     7:    1371.74 cm**-1
     8:    2404.58 cm**-1


------------
NORMAL MODES
------------

These modes are the Cartesian displacements weighted by the diagonal matrix
M(i,i)=1/sqrt(m[i]) where m[i] is the mass of the displaced atom
Thus, these vectors are normalized but *not* orthogonal

                  0          1          2          3          4          5    
      0       0.000000   0.000000   0.000000   0.000000   0.000000   0.000000
      1       0.000000   0.000000   0.000000   0.000000   0.000000  -0.720725
      2       0.000000   0.000000   0.000000   0.000000   0.000000  -0.510595
      3       0.000000   0.000000   0.000000   0.000000   0.000000   0.000003
      4       0.000000   0.000000   0.000000   0.000000   0.000000   0.270538
      5       0.000000   0.000000   0.000000   0.000000   0.000000   0.191662
      6       0.000000   0.000000   0.000000   0.000000   0.000000  -0.000003
      7       0.000000   0.000000   0.000000   0.000000   0.000000   0.270535
      8       0.000000   0.000000   0.000000   0.000000   0.000000   0.191660
                  6          7          8    
      0      -0.000002  -0.000027  -0.883262
      1      -0.510595  -0.000007   0.000001
      2       0.720725   0.000002  -0.000002
      3       0.000004  -0.707096   0.331565
      4       0.191662   0.000003  -0.000000
      5      -0.270538  -0.000001   0.000001
      6      -0.000002   0.707117   0.331530
      7       0.191660   0.000003  -0.000001
      8      -0.270535  -0.000001   0.000001


-----------
IR SPECTRUM
-----------

 Mode   freq       eps      Int      T**2         TX        TY        TZ
       cm**-1   L/(mol*cm) km/mol    a.u.
----------------------------------------------------------------------------
  5:    669.89   0.006231   31.49  0.002903  (-0.000000 -0.043963 -0.031145)
  6:    669.91   0.006231   31.49  0.002903  (-0.000001 -0.031145  0.043962)
  7:   1371.74   0.000000    0.00  0.000000  (-0.000005 -0.000001 -0.000000)
  8:   2404.58   0.133549  674.90  0.017332  (-0.131650  0.000000 -0.000000)

* The epsilon (eps) is given for a Dirac delta lineshape.
** The dipole moment derivative (T) already includes vibrational overlap.

--------------
RAMAN SPECTRUM  
--------------

 Mode    freq (cm**-1)   Activity   Depolarization
-------------------------------------------------------------------
   5:       669.89      0.000005      0.749646
   6:       669.91      0.000005      0.749837
   7:      1371.74     21.830751      0.102573
   8:      2404.58      0.000000      0.650402

The first frequency considered to be a vibration is 5
The total number of vibrations considered is 4


--------------------------
THERMOCHEMISTRY AT 298.15K
--------------------------

Temperature         ...   298.15 K
Pressure            ...     1.00 atm
Total Mass          ...    44.01 AMU
Quasi RRHO          ...     True
Cut-Off Frequency   ...     1.00 cm^-1
The molecule is recognized as being linear

Throughout the following assumptions are being made:
  (1) The electronic state is orbitally nondegenerate
  (2) There are no thermally accessible electronically excited states
  (3) Hindered rotations indicated by low frequency modes are not
      treated as such but are treated as vibrations and this may
      cause some error
  (4) All equations used are the standard statistical mechanics
      equations for an ideal gas
  (5) All vibrations are strictly harmonic

freq.     669.89  E(vib)   ...       0.08 
freq.     669.91  E(vib)   ...       0.08 
freq.    1371.74  E(vib)   ...       0.01 
freq.    2404.58  E(vib)   ...       0.00 

------------
INNER ENERGY
------------

The inner energy is: U= E(el) + E(ZPE) + E(vib) + E(rot) + E(trans)
    E(el)   - is the total energy from the electronic structure calculation
              = E(kin-el) + E(nuc-el) + E(el-el) + E(nuc-nuc)
    E(ZPE)  - the the zero temperature vibrational energy from the frequency calculation
    E(vib)  - the the finite temperature correction to E(ZPE) due to population
              of excited vibrational states
    E(rot)  - is the rotational thermal energy
    E(trans)- is the translational thermal energy

Summary of contributions to the inner energy U:
Electronic energy                ...   -188.58820757 Eh
Zero point energy                ...      0.01165539 Eh       7.31 kcal/mol
Thermal vibrational correction   ...      0.00025919 Eh       0.16 kcal/mol
Thermal rotational correction    ...      0.00094418 Eh       0.59 kcal/mol
Thermal translational correction ...      0.00141627 Eh       0.89 kcal/mol
-----------------------------------------------------------------------
Total thermal energy                   -188.57393253 Eh


Summary of corrections to the electronic energy:
(perhaps to be used in another calculation)
Total thermal correction                  0.00261964 Eh       1.64 kcal/mol
Non-thermal (ZPE) correction              0.01165539 Eh       7.31 kcal/mol
-----------------------------------------------------------------------
Total correction                          0.01427503 Eh       8.96 kcal/mol


--------
ENTHALPY
--------

The enthalpy is H = U + kB*T
                kB is Boltzmann's constant
Total thermal energy              ...   -188.57393253 Eh 
Thermal Enthalpy correction       ...      0.00094421 Eh       0.59 kcal/mol
-----------------------------------------------------------------------
Total Enthalpy                    ...   -188.57298833 Eh


Note: Rotational entropy computed according to Herzberg 
Infrared and Raman Spectra, Chapter V,1, Van Nostrand Reinhold, 1945 
Point Group:  D(inf)h, Symmetry Number:   1  
Rotational constants in cm-1:     0.000000     0.391503     0.391503 

Vibrational entropy computed according to the QRRHO of S. Grimme
Chem.Eur.J. 2012 18 9955 using a reference frequency of 100.0 cm-1


-------
ENTROPY
-------

The entropy contributions are T*S = T*(S(el)+S(vib)+S(rot)+S(trans))
     S(el)   - electronic entropy
     S(vib)  - vibrational entropy
     S(rot)  - rotational entropy
     S(trans)- translational entropy
The entropies will be listed as multiplied by the temperature to get
units of energy

Electronic entropy                ...      0.00000000 Eh      0.00 kcal/mol
Vibrational entropy               ...      0.00033676 Eh      0.21 kcal/mol
Rotational entropy                ...      0.00686568 Eh      4.31 kcal/mol
Translational entropy             ...      0.01770880 Eh     11.11 kcal/mol
-----------------------------------------------------------------------
Final entropy term                ...      0.02491124 Eh     15.63 kcal/mol

In case the symmetry of your molecule has not been determined correctly
or in case you have a reason to use a different symmetry number we print 
out the resulting rotational entropy values for sn=1,12:

 non-linear molecules -----------------------------------
|  sn= 1 | S(rot)=      -0.00266971 Eh     -1.68 kcal/mol|
|  sn= 2 | S(rot)=      -0.00332417 Eh     -2.09 kcal/mol|
|  sn= 3 | S(rot)=      -0.00370700 Eh     -2.33 kcal/mol|
|  sn= 4 | S(rot)=      -0.00397862 Eh     -2.50 kcal/mol|
|  sn= 5 | S(rot)=      -0.00418931 Eh     -2.63 kcal/mol|
|  sn= 6 | S(rot)=      -0.00436146 Eh     -2.74 kcal/mol|
|  sn= 7 | S(rot)=      -0.00450700 Eh     -2.83 kcal/mol|
|  sn= 8 | S(rot)=      -0.00463308 Eh     -2.91 kcal/mol|
|  sn= 9 | S(rot)=      -0.00474429 Eh     -2.98 kcal/mol|
|  sn=10 | S(rot)=      -0.00484377 Eh     -3.04 kcal/mol|
|  sn=11 | S(rot)=      -0.00493376 Eh     -3.10 kcal/mol|
|  sn=12 | S(rot)=      -0.00501591 Eh     -3.15 kcal/mol|
 linear molecules ---------------------------------------
|  Dinfh | S(rot)=       0.00621122 Eh      3.90 kcal/mol|
|  Cinfv | S(rot)=       0.00686568 Eh      4.31 kcal/mol|
 --------------------------------------------------------


-------------------
GIBBS FREE ENERGY
-------------------

The Gibbs free energy is G = H - T*S

Total enthalpy                    ...   -188.57298833 Eh 
Total entropy correction          ...     -0.02491124 Eh    -15.63 kcal/mol
-----------------------------------------------------------------------
Final Gibbs free energy         ...   -188.59789956 Eh

For completeness - the Gibbs free energy minus the electronic energy
G-E(el)                           ...     -0.00969200 Eh     -6.08 kcal/mol



--------------------------------
SUGGESTED CITATIONS FOR THIS RUN
--------------------------------

Below you find a list of papers that are relevant to this ORCA run
We neither can nor want to force you to cite these papers, but we appreciate if you do
You receive ORCA, which is the product of decades of hard work by many enthusiastic individuals, for free
The only thing we kindly ask in return is that you cite our papers,
We deeply appreciate it, if you show your appreciation for ORCA by not just citing the generic ORCA reference.

Please note that relegating all ORCA citations to the supporting information does *not* help us.
SI sections are not indexed - citations you put there will not count into any citation statistics
But we need these citations in order to attract the funding resources that allow us to do what we are doing

Therefore, if you are a happy ORCA user, please consider citing a few of the papers listed below in the main body of your paper

In addition to the list printed below, the program has created the file co2_opt.bibtex that contains the list in bibtex format
You can import this file easily into all common literature databanks and citation aid programs


List of essential papers. We consider these as the minimum necessary citations

  1. Neese,F.
     Software update: the ORCA program system, version 5.0
     WIRES Comput. Molec. Sci., 2022 12(1)e1606
     doi.org/10.1002/wcms.1606

List of papers to cite with high priority. The work reported in these papers was absolutely
necessary for this run to complete.
Our perspective: the developers of density functionals and basis sets usually get cited in chemistry papers
Good! But without the algorithms to do something with them, the functionals or basis sets would not do anything.
Hence, in our opinion, the algorithm design and method developments papers are equally worthy of getting cited

  1. Neese,F.
     An improvement of the resolution of the identity approximation for the formation of the Coulomb matrix
     J. Comp. Chem., 2003 24(14)1740-1747
     doi.org/10.1002/jcc.10318
  2. Neese,F.; Wennmohs,F.; Hansen,A.; Becker,U.
     Efficient, approximate and parallel Hartree-Fock and hybrid DFT calculations. A 'chain-of-spheres' algorithm for the Hartree-Fock exchange
     Chem. Phys., 2009 356(1-3)98-109
     doi.org/10.1016/j.chemphys.2008.10.036
  3. Bykov,D.; Petrenko,T.; Izsak,R.; Kossmann,S.; Becker,U.; Valeev,E.; Neese,F.
     Efficient implementation of the analytic second derivatives of Hartree-Fock and hybrid DFT energies: a detailed analysis of different approximations
     Molec. Phys., 2015 113 1961-1977
     doi.org/10.1080/00268976.2015.1025114
  4. Helmich-Paris,B.; de Souza,B.; Neese,F.; Izsák,R.
     An improved chain of spheres for exchange algorithm
     J. Chem. Phys., 2021 155 104109
     doi.org/doi: 10.1063/5.0058766.
  5. Neese,F.
     The SHARK Integral Generation and Digestion System
     J. Comp. Chem., 2022  1-16
     doi.org/10.1002/jcc.26942

List of suggested additional citations. These are papers that are important in the 'surrounding' of 
of this run, or papers that preceded the highly important papers. If you like your results we are grateful for a citation.

  1. Izsak,R.; Neese,F.
     An overlap fitted chain of spheres exchange method
     J. Chem. Phys., 2011 135 144105
     doi.org/10.1063/1.3646921
  2. Izsak,R.; Hansen,A.; Neese,F.
     The resolution of identity and chain of spheres approximations for the LPNO-CCSD singles Fock term
     Molec. Phys., 2012 110 2413-2417
     doi.org/10.1080/00268976.2012.687466
  3. Neese,F.
     The ORCA program system
     WIRES Comput. Molec. Sci., 2012 2(1)73-78
     doi.org/10.1002/wcms.81
  4. Izsak,R.; Neese,F.; Klopper,W.
     Robust fitting techniques in the chain of spheres approximation to the Fock exchange: The role of the complementary space
     J. Chem. Phys., 2013 139 
     doi.org/10.1063/1.4819264
  5. Neese,F.
     Software update: the ORCA program system, version 4.0
     WIRES Comput. Molec. Sci., 2018 8(1)1-6
     doi.org/10.1002/wcms.1327
  6. Neese,F.; Wennmohs,F.; Becker,U.; Riplinger,C.
     The ORCA quantum chemistry program package
     J. Chem. Phys., 2020 152 Art. No. L224108
     doi.org/10.1063/5.0004608

List of optional additional citations

  1. Neese,F.
     Approximate second-order SCF convergence for spin unrestricted wavefunctions
     Chem. Phys. Lett., 2000 325(1-3)93-98
     doi.org/10.1016/s0009-2614(00)00662-x

Timings for individual modules:

Sum of individual times          ...      290.694 sec (=   4.845 min)
Startup calculation              ...        1.608 sec (=   0.027 min)   0.6 %
SCF iterations                   ...       30.811 sec (=   0.514 min)  10.6 %
SCF Response                     ...        1.600 sec (=   0.027 min)   0.6 %
Property calculations            ...        0.051 sec (=   0.001 min)   0.0 %
SCF Gradient evaluation          ...       28.119 sec (=   0.469 min)   9.7 %
Geometry relaxation              ...        0.009 sec (=   0.000 min)   0.0 %
Numerical frequency calculation  ...      228.496 sec (=   3.808 min)  78.6 %
                             ****ORCA TERMINATED NORMALLY****
TOTAL RUN TIME: 0 days 0 hours 6 minutes 7 seconds 778 msec
