
                                 *****************
                                 * O   R   C   A *
                                 *****************

                                            #,                                       
                                            ###                                      
                                            ####                                     
                                            #####                                    
                                            ######                                   
                                           ########,                                 
                                     ,,################,,,,,                         
                               ,,#################################,,                 
                          ,,##########################################,,             
                       ,#########################################, ''#####,          
                    ,#############################################,,   '####,        
                  ,##################################################,,,,####,       
                ,###########''''           ''''###############################       
              ,#####''   ,,,,##########,,,,          '''####'''          '####       
            ,##' ,,,,###########################,,,                        '##       
           ' ,,###''''                  '''############,,,                           
         ,,##''                                '''############,,,,        ,,,,,,###''
      ,#''                                            '''#######################'''  
     '                                                          ''''####''''         
             ,#######,   #######,   ,#######,      ##                                
            ,#'     '#,  ##    ##  ,#'     '#,    #''#        ,####,   ,####,        
            ##       ##  ##   ,#'  ##            #'  '#       #'       #'  '#        
            ##       ##  #######   ##           ,######,      #####,   #    #        
            '#,     ,#'  ##    ##  '#,     ,#' ,#      #,     #,   #   #,  ,#        
             '#######'   ##     ##  '#######'  #'      '#     '####' # '####'        



                #########################################################
                #                        -***-                          #
                #          Department of theory and spectroscopy        #
                #                                                       #
                #                      Frank Neese                      #
                #                                                       #
                #     Directorship, Architecture, Infrastructure        #
                #                    SHARK, DRIVERS                     #
                #        Core code/Algorithms in most modules           #
                #                                                       #
                #        Max Planck Institute fuer Kohlenforschung      #
                #                Kaiser Wilhelm Platz 1                 #
                #                 D-45470 Muelheim/Ruhr                 #
                #                      Germany                          #
                #                                                       #
                #                  All rights reserved                  #
                #                        -***-                          #
                #########################################################


                         Program Version 6.0.1  -  RELEASE   -


 With contributions from (in alphabetic order):
[Max-Planck-Institut fuer Kohlenforschung]                               
  Daniel Aravena         : Magnetic Suceptibility                        
  Michael Atanasov       : Ab Initio Ligand Field Theory (pilot matlab implementation)
  Alexander A. Auer      : GIAO ZORA, VPT2 properties, NMR spectrum      
  Ute Becker             : All parallelization in ORCA, NUMFREQ, NUMCALC 
  Giovanni Bistoni       : ED, misc. LED, open-shell LED, HFLD           
  Martin Brehm           : Molecular dynamics                            
  Dmytro Bykov           : pre 5.0 version of the SCF Hessian            
  Marcos Casanova-Páez   : Triplet and SCS-CIS(D). UHF-(DLPNO)-IP/EA/STEOM-CCSD. UHF-CVS-IP/STEOM-CCSD   
  Vijay G. Chilkuri      : MRCI spin determinant printing, contributions to CSF-ICE 
  Pauline Colinet        : FMM embedding                                 
  Dipayan Datta          : RHF DLPNO-CCSD density                        
  Achintya Kumar Dutta   : EOM-CC, STEOM-CC                              
  Nicolas Foglia         : Exact transition moments, OPA infrastructure, MCD improvements    
  Dmitry Ganyushin       : Spin-Orbit,Spin-Spin,Magnetic field MRCI      
  Miquel Garcia-Rates    : C-PCM and meta-GGA Hessian, CCSD/C-PCM, Gaussian charge scheme 
  Tiago L. C. Gouveia    : GS-ROHF, GS-ROCIS                             
  Yang Guo               : DLPNO-NEVPT2, F12-NEVPT2, CIM, IAO-localization        
  Andreas Hansen         : Spin unrestricted coupled pair/coupled cluster methods 
  Ingolf Harden          : AUTO-CI MPn and infrastructure                
  Benjamin Helmich-Paris : MC-RPA, TRAH-(SCF,CASSCF), AVAS, COSX integrals, SCF dyn. polar. 
  Lee Huntington         : MR-EOM, pCC                                   
  Robert Izsak           : Overlap fitted RIJCOSX, COSX-SCS-MP3, EOM     
  Riya Kayal             : Wick's Theorem for AUTO-CI, AUTO-CI UHF-CCSDT 
  Emily Kempfer          : AUTO-CI, RHF CISDT and CCSDT                  
  Christian Kollmar      : KDIIS, OOCD, Brueckner-CCSD(T), CCSD density, CASPT2, CASPT2-K, improved NEVPT2 
  Axel Koslowski         : Symmetry handling                             
  Simone Kossmann        : meta-GGA functionals, TD-DFT gradient, OOMP2, (MP2 Hessian; deprecated post 5.0) 
  Lucas Lang             : DCDCAS                                        
  Marvin Lechner         : AUTO-CI (C++ implementation), FIC-MRCC        
  Spencer Leger          : CASSCF response                               
  Dagmar Lenk            : GEPOL surface, SMD, ORCA-2-JSON               
  Dimitrios Liakos       : Extrapolation schemes; Compound Job, initial MDCI parallelization 
  Dimitrios Manganas     : Further ROCIS development; embedding schemes. LFT, Crystal Embedding 
  Dimitrios Pantazis     : SARC Basis sets                               
  Anastasios Papadopoulos: AUTO-CI, single reference methods and gradients 
  Taras Petrenko         : pre 6.0 DFT Hessian and TD-DFT gradient, (ASA, deprecated), ECA, 1-Electron XAS/XES, NRVS 
  Peter Pinski           : DLPNO-MP2, DLPNO-MP2 Gradient                 
  Christoph Reimann      : Effective Core Potentials                     
  Marius Retegan         : Local ZFS, SOC                                
  Christoph Riplinger    : Optimizer, TS searches, QM/MM, DLPNO-CCSD(T), (RO)-DLPNO pert. Triples 
  Michael Roemelt        : Original ROCIS implementation                 
  Masaaki Saitow         : Open-shell DLPNO-CCSD energy and density      
  Barbara Sandhoefer     : DKH picture change effects                    
  Kantharuban Sivalingam : CASSCF convergence/infrastructure, NEVPT2 and variants, FIC-MRCI 
  Bernardo de Souza      : ESD, SOC TD-DFT                               
  Georgi L. Stoychev     : AutoAux, RI-MP2 NMR, DLPNO-MP2 response, X2C  
  Van Anh Tran           : RI-MP2 g-tensors                              
  Willem Van den Heuvel  : Paramagnetic NMR                              
  Zikuan Wang            : NOTCH, Electric field optimization            
  Frank Wennmohs         : Technical directorship and infrastructure     
  Hang Xu                : AUTO-CI-Response properties                   
                                                                         
[FACCTs GmbH]                                                            
  Markus Bursch, Miquel Garcia-Rates, Christoph Riplinger, Bernardo de Souza, Georgi L. Stoychev 
                                                                 
  APM, Basis sets (HGBS, AHGBS, def-TZVP (Ac-Lr), def2-XVPD (La-Lu)), CI-OPT, improved COSX, DLPNO-Multilevel,           
  DOCKER, DRACO, updates on ESD, GOAT, IRC, LR-CPCM, MBIS, meta-GGA TD-DFT gradient, ML-optimized integration grids, 
  MM, NACMEs, nearIR, NEB, NEB-TS, NL-DFT gradient (VV10), 2- and 3-layer-ONIOM, interface openCOSMO-RS, QMMM,   
  Crystal-QMMM, SF, symmetry and pop. for TD-DFT, r2SCAN hybrids, SOLVATOR                                   
                                                                         
[Other institutions]                                                     
  V. Asgeirsson          : NEB                                           
  Christoph Bannwarth    : sTDA-DFT, sTD-DFT, PBEh-3c, B97-3c, D3        
  Sebastian Ehlert       : rSCAN, r2SCAN, r2SCAN-3c, D4, dhf basis sets  
  Marvin Friede          : D4 for Fr, Ra, Ac-Lr                          
  Lars Goerigk           : TD-DFT with DH, B97 family of functionals     
  Stefan Grimme          : VdW corrections, initial TS optimization, DFT functionals, gCP, sTDA/sTD-DF 
  Waldemar Hujo          : DFT-NL                                        
  H. Jonsson             : NEB                                           
  Holger Kruse           : gCP                                           
  Marcel Mueller         : wB97X-3c, vDZP basis set                      
  Hagen Neugebauer       : wr2SCAN                                       
  Tobias Risthaus        : range-separated hybrid DFT                    
  Lukas Wittmann         : regularized MP2, r2SCAN double-hybrids, wr2SCAN        
                                                                         
We gratefully acknowledge several colleagues who have allowed us to      
interface, adapt or use parts of their codes:                            
  Ed Valeev, F. Pavosevic, A. Kumar             : LibInt (2-el integral package), F12 methods 
  Garnet Chan, S. Sharma, J. Yang, R. Olivares  : DMRG                   
  Ulf Ekstrom                                   : XCFun DFT Library      
  Mihaly Kallay                                 : mrcc  (arbitrary order and MRCC methods)
  Frank Weinhold                                : gennbo (NPA and NBO analysis)           
  Simon Mueller                                 : openCOSMO-RS                            
  Christopher J. Cramer and Donald G. Truhlar   : smd solvation model                     
  S Lehtola, MJT Oliveira, MAL Marques          : LibXC Library                           
  Liviu Ungur et al                             : ANISO software                          


 Your calculation uses the libint2 library for the computation of 2-el integrals
 For citations please refer to: http://libint.valeyev.net

 Your ORCA version has been built with support for libXC version: 6.2.2
 For citations please refer to: https://libxc.gitlab.io

 This ORCA versions uses:
   CBLAS   interface :  Fast vector & matrix operations
   LAPACKE interface :  Fast linear algebra routines
   SCALAPACK package :  Parallel linear algebra routines
   Shared memory     :  Shared parallel matrices
   BLAS/LAPACK       :  OpenBLAS 0.3.27  USE64BITINT DYNAMIC_ARCH NO_AFFINITY SkylakeX SINGLE_THREADED
        Core in use  :  SkylakeX
   Copyright (c) 2011-2014, The OpenBLAS Project


NOTE: MaxCore=2000 MB was set to SCF,MP2,MDCI,CIPSI,MRCI and CIS
      => If you want to overwrite this, your respective input block should be placed after the MaxCore statement
Warning: RI is on but no J-basis has been assigned. Assigning Def2/J (nothing to worry about!)
================================================================================

----- Orbital basis set information -----
Your calculation utilizes the basis: def2-TZVPD
   F. Weigend and R. Ahlrichs, Phys. Chem. Chem. Phys. 7, 3297 (2005).
   D. Rappoport and F. Furche, J. Chem. Phys. 133, 134105 (2010)
   D. Rappoport, J. Chem. Phys. 155, 124102 (2021).

----- AuxJ basis set information -----
Your calculation utilizes the auxiliary basis: def2/J
   F. Weigend, Phys. Chem. Chem. Phys. 8, 1057 (2006).

================================================================================
                                        WARNINGS
                       Please study these warnings very carefully!
================================================================================

WARNING: Old DensityContainer found on disk!
         Will remove this file - 
         If you want to keep old densities, please start your calculation with a different basename. 


================================================================================
                                       INPUT FILE
================================================================================
NAME = co2_opt.inp
|  1> ! B3LYP def2-TZVPD Opt Freq EnGrad  TightSCF
|  2> %maxcore 2000
|  3> %geom
|  4> Calc_Hess true
|  5> Recalc_Hess 5
|  6> end
|  7> %output
|  8>   PrintLevel 5
|  9> end
| 10> * xyz 0 1
| 11> C    0.000000    0.000000    0.000000
| 12> O    1.200000    0.000000    0.000000
| 13> O   -1.200000    0.000000    0.000000
| 14> *
| 15> 
| 16> 
| 17>                          ****END OF INPUT****
================================================================================

                     *******************************
                     * Energy+Gradient Calculation *
                     *******************************

---------------------------------
CARTESIAN COORDINATES (ANGSTROEM)
---------------------------------
  C      0.000000    0.000000    0.000000
  O      1.200000    0.000000    0.000000
  O     -1.200000    0.000000    0.000000

----------------------------
CARTESIAN COORDINATES (A.U.)
----------------------------
  NO LB      ZA    FRAG     MASS         X           Y           Z
   0 C     6.0000    0    12.011    0.000000    0.000000    0.000000
   1 O     8.0000    0    15.999    2.267671    0.000000    0.000000
   2 O     8.0000    0    15.999   -2.267671    0.000000    0.000000

--------------------------------
INTERNAL COORDINATES (ANGSTROEM)
--------------------------------
 C      0   0   0     0.000000000000     0.00000000     0.00000000
 O      1   0   0     1.200000000000     0.00000000     0.00000000
 O      1   2   0     1.200000000000   180.00000000     0.00000000

---------------------------
INTERNAL COORDINATES (A.U.)
---------------------------
 C      0   0   0     0.000000000000     0.00000000     0.00000000
 O      1   0   0     2.267671360706     0.00000000     0.00000000
 O      1   2   0     2.267671360706   180.00000000     0.00000000

---------------------
BASIS SET INFORMATION
---------------------
There are 2 groups of distinct atoms

 Group   1 Type C   : 12s6p3d1f contracted to 6s3p3d1f pattern {621111/411/111/1}
 Group   2 Type O   : 12s7p3d1f contracted to 6s4p3d1f pattern {621111/4111/111/1}

Atom   0C    basis set group =>   1
Atom   1O    basis set group =>   2
Atom   2O    basis set group =>   2

-------------------------
BASIS SET IN INPUT FORMAT
-------------------------

 # Basis set for element : C 
 NewGTO C 
 S 6 
   1   13575.3496820000      0.0006064549
   2    2035.2333680000      0.0046979088
   3     463.2256235900      0.0243324776
   4     131.2001959800      0.0973999683
   5      42.8530158910      0.3019558425
   6      15.5841857660      0.6623360915
 S 2 
   1       6.2067138508      0.6559530854
   2       2.5764896527      0.3758563329
 S 1 
   1       0.5769633942      1.0000000000
 S 1 
   1       0.2297283136      1.0000000000
 S 1 
   1       0.0951644400      1.0000000000
 P 4 
   1      34.6972322440      0.0113272200
   2       7.9582622826      0.0761696592
   3       2.3780826883      0.3019225220
   4       0.8143320818      0.7278502735
 P 1 
   1       0.2888754725      1.0000000000
 P 1 
   1       0.1005682367      1.0000000000
 D 1 
   1       1.0970000000      1.0000000000
 D 1 
   1       0.3180000000      1.0000000000
 F 1 
   1       0.7610000000      1.0000000000
 S 1 
   1       0.0484754014      1.0000000000
 D 1 
   1       0.0909853364      1.0000000000
  end;

 # Basis set for element : O 
 NewGTO O 
 S 6 
   1   27032.3826310000      0.0005722733
   2    4052.3871392000      0.0044353233
   3     922.3272271000      0.0230201076
   4     261.2407098900      0.0928224906
   5      85.3546413510      0.2937850002
   6      31.0350352450      0.6740160450
 S 2 
   1      12.2608607280      0.6383993702
   2       4.9987076005      0.3953458713
 S 1 
   1       1.1703108158      1.0000000000
 S 1 
   1       0.4647474099      1.0000000000
 S 1 
   1       0.1850453636      1.0000000000
 P 4 
   1      63.2749548010      0.0120183321
   2      14.6270493790      0.0830054217
   3       4.4501223456      0.3199174393
   4       1.5275799647      0.7071554292
 P 1 
   1       0.5293511794      1.0000000000
 P 1 
   1       0.1747842127      1.0000000000
 D 1 
   1       2.3140000000      1.0000000000
 D 1 
   1       0.6450000000      1.0000000000
 F 1 
   1       1.4280000000      1.0000000000
 S 1 
   1       0.0702880263      1.0000000000
 P 1 
   1       0.0511127457      1.0000000000
 D 1 
   1       0.1469647737      1.0000000000
  end;

---------------------------------
AUXILIARY/J BASIS SET INFORMATION
---------------------------------
There are 2 groups of distinct atoms

 Group   1 Type C   : 12s5p4d2f1g contracted to 6s4p3d1f1g pattern {711111/2111/211/2/1}
 Group   2 Type O   : 12s5p4d2f1g contracted to 6s4p3d1f1g pattern {711111/2111/211/2/1}

Atom   0C    basis set group =>   1
Atom   1O    basis set group =>   2
Atom   2O    basis set group =>   2

-------------------------------------
AUXILIARY/J BASIS SET IN INPUT FORMAT
-------------------------------------

 # Auxiliary/J basis set for element : C 
 NewAuxJGTO C 
 S 7 
   1    1861.0916331000      0.0134602335
   2     642.9939764000      0.0299160374
   3     235.1105725000      0.1008649584
   4      90.7028894000      0.2370970548
   5      36.7794552000      0.3924037254
   6      15.6046273000      0.3195862154
   7       6.8907294000      0.0530104441
 S 1 
   1       3.1478850000     -1.0000000000
 S 1 
   1       1.4777287000      1.0000000000
 S 1 
   1       0.7076466000      1.0000000000
 S 1 
   1       0.3430122000      1.0000000000
 S 1 
   1       0.1669453000      1.0000000000
 P 2 
   1      13.5472892000     -0.6769313712
   2       5.4669419000     -0.3779500978
 P 1 
   1       2.1751721000      1.0000000000
 P 1 
   1       0.8582194000      1.0000000000
 P 1 
   1       0.3376720000      1.0000000000
 D 2 
   1       5.9287253000     -0.3533329857
   2       1.9809209000     -0.7456525731
 D 1 
   1       0.8055417000     -1.0000000000
 D 1 
   1       0.3531244000     -1.0000000000
 F 2 
   1       1.6755626000      0.6311076882
   2       0.5997536000      0.4968166032
 G 1 
   1       1.0024600000     -1.0000000000
  end;

 # Auxiliary/J basis set for element : O 
 NewAuxJGTO O 
 S 7 
   1    2876.8216605000      0.0168151159
   2    1004.7443032000      0.0340137548
   3     369.7579954000      0.1194951309
   4     142.9442404000      0.2664627624
   5      57.8366425000      0.4202764046
   6      24.3864983000      0.2765077335
   7      10.6622662000      0.0057008815
 S 1 
   1       4.8070437000     -1.0000000000
 S 1 
   1       2.2210770000      1.0000000000
 S 1 
   1       1.0447795000      1.0000000000
 S 1 
   1       0.4968425000      1.0000000000
 S 1 
   1       0.2371384000      1.0000000000
 P 2 
   1      64.2613382000     -0.2731534179
   2      16.3006076000     -0.8168011598
 P 1 
   1       4.3550542000      1.0000000000
 P 1 
   1       1.2019554000      1.0000000000
 P 1 
   1       0.3354196000      1.0000000000
 D 2 
   1       9.2146611000     -0.4661230638
   2       2.8435251000     -0.6600908911
 D 1 
   1       0.9955759000     -1.0000000000
 D 1 
   1       0.3649441000     -1.0000000000
 F 2 
   1       2.6420115000      0.5931563945
   2       0.7345613000      0.5931563945
 G 1 
   1       1.3931000000     -1.0000000000
  end;


Checking for AutoStart:
The File: co2_opt.gbw exists
Trying to determine its content:
     ... Fine, the file contains calculation information
     ... Fine, the calculation information was read
     ... Fine, the file contains a basis set
     ... Fine, the basis set was read
     ... Fine, the file contains a geometry
     ... Fine, the geometry was read
     ... Fine, the file contains a set of orbitals
     ... Fine, the orbitals can be read
     => possible old guess file was deleted
     => GBW file was renamed to GES file
     => GES file is set as startup file
     => Guess is set to MORead
     ... now leaving AutoStart

------------------------------------------------------------------------------
                             ORCA STARTUP CALCULATIONS
                           -- RI-GTO INTEGRALS CHOSEN --
------------------------------------------------------------------------------
------------------------------------------------------------------------------
                   ___                                                        
                  /   \      - P O W E R E D   B Y -                         
                 /     \                                                     
                 |  |  |   _    _      __       _____    __    __             
                 |  |  |  | |  | |    /  \     |  _  \  |  |  /  |          
                  \  \/   | |  | |   /    \    | | | |  |  | /  /          
                 / \  \   | |__| |  /  /\  \   | |_| |  |  |/  /          
                |  |  |   |  __  | /  /__\  \  |    /   |      \           
                |  |  |   | |  | | |   __   |  |    \   |  |\   \          
                \     /   | |  | | |  |  |  |  | |\  \  |  | \   \       
                 \___/    |_|  |_| |__|  |__|  |_| \__\ |__|  \__/        
                                                                              
                      - O R C A' S   B I G   F R I E N D -                    
                                      &                                       
                       - I N T E G R A L  F E E D E R -                       
                                                                              
 v1 FN, 2020, v2 2021, v3 2022-2024                                           
------------------------------------------------------------------------------


----------------------
SHARK INTEGRAL PACKAGE
----------------------

Number of atoms                             ...      3
Number of basis functions                   ...    117
Number of shells                            ...     41
Maximum angular momentum                    ...      3
Integral batch strategy                     ... SHARK/LIBINT Hybrid
RI-J (if used) integral strategy            ... SPLIT-RIJ (Revised 2003 algorithm where possible)
Printlevel                                  ...      1
Contraction scheme used                     ... SEGMENTED contraction
Prescreening option                         ... SCHWARTZ
   Thresh                                   ... 2.500e-11
   Tcut                                     ... 2.500e-12
   Tpresel                                  ... 2.500e-12 
Coulomb Range Separation                    ... NOT USED
Exchange Range Separation                   ... NOT USED
Multipole approximations                    ... NOT USED
Finite Nucleus Model                        ... NOT USED
CABS basis                                  ... NOT available
Auxiliary Coulomb fitting basis             ... AVAILABLE
   # of basis functions in Aux-J            ...    147
   # of shells in Aux-J                     ...     45
   Maximum angular momentum in Aux-J        ...      4
Auxiliary J/K fitting basis                 ... NOT available
Auxiliary Correlation fitting basis         ... NOT available
Auxiliary 'external' fitting basis          ... NOT available

Checking pre-screening integrals            ... done (  0.0 sec) Dimension = 41
Check shell pair data                       ... done (  0.0 sec)
Shell pair information
Shell pair cut-off parameter TPreSel        ...   2.5e-12
Total number of shell pairs                 ...       861
Shell pairs after pre-screening             ...       849
Total number of primitive shell pairs       ...      2412
Primitive shell pairs kept                  ...      2113
          la=0 lb=0:    165 shell pairs
          la=1 lb=0:    196 shell pairs
          la=1 lb=1:     66 shell pairs
          la=2 lb=0:    158 shell pairs
          la=2 lb=1:     99 shell pairs
          la=2 lb=2:     45 shell pairs
          la=3 lb=0:     54 shell pairs
          la=3 lb=1:     33 shell pairs
          la=3 lb=2:     27 shell pairs
          la=3 lb=3:      6 shell pairs

Calculating one electron integrals          ... done (  0.0 sec)
Calculating RI/J V-Matrix + Cholesky decomp.... done (  0.0 sec)
Calculating Nuclear repulsion               ... done (  0.0 sec) ENN=     56.445568885333 Eh

Diagonalization of the overlap matrix:
Smallest eigenvalue                        ... 1.201e-04
Time for diagonalization                   ...    0.001 sec
Threshold for overlap eigenvalues          ... 1.000e-07
Number of eigenvalues below threshold      ... 0
Time for construction of square roots      ...    0.000 sec
Total time needed                          ...    0.002 sec

-------------------
DFT GRID GENERATION
-------------------

General Integration Accuracy     IntAcc      ... 4.388
Radial Grid Type                 RadialGrid  ... OptM3 with GC (2021)
Angular Grid (max. ang.)         AngularGrid ... 4 (Lebedev-302)
Angular grid pruning method      GridPruning ... 4 (adaptive)
Weight generation scheme         WeightScheme... mBecke (2022)
Basis function cutoff            BFCut       ... 1.0000e-11
Integration weight cutoff        WCut        ... 1.0000e-14
Partially contracted basis set               ... off
Rotationally invariant grid construction     ... off
Angular grids for H and He will be reduced by one unit
Diffuse basis detected: some atoms will have their outermost
                        angular grid increased by 1.

Total number of grid points                  ...    19310
Total number of batches                      ...      304
Average number of points per batch           ...       63
Average number of grid points per atom       ...     6437

--------------------
COSX GRID GENERATION
--------------------

GRIDX 1
-------
General Integration Accuracy     IntAcc      ... 3.816
Radial Grid Type                 RadialGrid  ... OptM3 with GC (2021)
Angular Grid (max. ang.)         AngularGrid ... 1 (Lebedev-50)
Angular grid pruning method      GridPruning ... 4 (adaptive)
Weight generation scheme         WeightScheme... mBecke (2022)
Basis function cutoff            BFCut       ... 1.0000e-11
Integration weight cutoff        WCut        ... 1.0000e-14
Partially contracted basis set               ... on
Rotationally invariant grid construction     ... off
Angular grids for H and He will be reduced by one unit
Diffuse basis detected: some atoms will have their outermost
                        angular grid increased by 1.

Total number of grid points                  ...     2436
Total number of batches                      ...       20
Average number of points per batch           ...      121
Average number of grid points per atom       ...      812
UseSFitting                                  ... on

GRIDX 2
-------
General Integration Accuracy     IntAcc      ... 4.020
Radial Grid Type                 RadialGrid  ... OptM3 with GC (2021)
Angular Grid (max. ang.)         AngularGrid ... 2 (Lebedev-110)
Angular grid pruning method      GridPruning ... 4 (adaptive)
Weight generation scheme         WeightScheme... mBecke (2022)
Basis function cutoff            BFCut       ... 1.0000e-11
Integration weight cutoff        WCut        ... 1.0000e-14
Partially contracted basis set               ... on
Rotationally invariant grid construction     ... off
Angular grids for H and He will be reduced by one unit
Diffuse basis detected: some atoms will have their outermost
                        angular grid increased by 1.

Total number of grid points                  ...     6852
Total number of batches                      ...       54
Average number of points per batch           ...      126
Average number of grid points per atom       ...     2284
UseSFitting                                  ... on

GRIDX 3
-------
General Integration Accuracy     IntAcc      ... 4.338
Radial Grid Type                 RadialGrid  ... OptM3 with GC (2021)
Angular Grid (max. ang.)         AngularGrid ... 3 (Lebedev-194)
Angular grid pruning method      GridPruning ... 4 (adaptive)
Weight generation scheme         WeightScheme... mBecke (2022)
Basis function cutoff            BFCut       ... 1.0000e-11
Integration weight cutoff        WCut        ... 1.0000e-14
Partially contracted basis set               ... on
Rotationally invariant grid construction     ... off
Angular grids for H and He will be reduced by one unit
Diffuse basis detected: some atoms will have their outermost
                        angular grid increased by 1.

Total number of grid points                  ...    14798
Total number of batches                      ...      116
Average number of points per batch           ...      127
Average number of grid points per atom       ...     4933
UseSFitting                                  ... on
Initializing property integral containers    ... done (  0.0 sec)

SHARK setup successfully completed in   0.3 seconds

Maximum memory used throughout the entire STARTUP-calculation: 13.8 MB
-------------------------------------------------------------------------------
                                 ORCA GUESS
                   Start orbitals & Density for SCF / CASSCF
-------------------------------------------------------------------------------

------------
SCF SETTINGS
------------
Hamiltonian:
 Density Functional     Method          .... DFT(GTOs)
 Exchange Functional    Exchange        .... B88
   X-Alpha parameter    XAlpha          ....  0.666667
   Becke's b parameter  XBeta           ....  0.004200
 Correlation Functional Correlation     .... LYP
 LDA part of GGA corr.  LDAOpt          .... VWN-5
 Gradients option       PostSCFGGA      .... off
 Hybrid DFT is turned on
   Fraction HF Exchange ScalHFX         ....  0.200000
   Scaling of DF-GGA-X  ScalDFX         ....  0.720000
   Scaling of DF-GGA-C  ScalDFC         ....  0.810000
   Scaling of DF-LDA-C  ScalLDAC        ....  1.000000
   Perturbative correction              ....  0.000000
   NL short-range parameter             ....  4.800000
 RI-approximation to the Coulomb term is turned on
   Number of AuxJ basis functions       .... 147
   RIJ-COSX (HFX calculated with COS-X)).... on


General Settings:
 Integral files         IntName         .... co2_opt
 Hartree-Fock type      HFTyp           .... RHF
 Total Charge           Charge          ....    0
 Multiplicity           Mult            ....    1
 Number of Electrons    NEL             ....   22
 Basis Dimension        Dim             ....  117
 Nuclear Repulsion      ENuc            ....     56.4455688853 Eh

Convergence Acceleration:
 AO-DIIS                CNVDIIS         .... on
   Start iteration      DIISMaxIt       ....    12
   Startup error        DIISStart       ....  0.200000
   # of expansion vecs  DIISMaxEq       ....     5
   Bias factor          DIISBfac        ....   1.050
   Max. coefficient     DIISMaxC        ....  10.000
 MO-DIIS                CNVKDIIS        .... off
 Trust-Rad. Augm. Hess. CNVTRAH         .... auto
   Auto Start mean grad. ratio tolernc. ....  1.125000
   Auto Start start iteration           ....     1
   Auto Start num. interpolation iter.  ....    10
   Max. Number of Micro iterations      ....    24
   Max. Number of Macro iterations      .... Maxiter - #DIIS iter
   Number of Davidson start vectors     ....     2
   Converg. threshold    (grad. norm)   ....   1.000e-05
   Grad. Scal. Fac. for Micro threshold ....   0.100
   Minimum threshold for Micro iter.    ....   1.000e-02
   NR start threshold (gradient norm)   ....   1.000e-04
   Initial trust radius                 ....   0.400
   Minimum AH scaling param. (alpha)    ....   1.000
   Maximum AH scaling param. (alpha)    .... 1000.000
   Quad. conv. algorithm                .... NR
   White noise on init. David. guess    .... on
   Maximum white noise                  ....   0.010
   Pseudo random numbers                .... off
   Inactive MOs                         .... canonical
   Orbital update algorithm             .... Taylor
   Preconditioner                       .... Diag
   Full preconditioner red. dimension   ....   250
 SOSCF                  CNVSOSCF        .... on
   Start iteration      SOSCFMaxIt      ....   150
   Startup grad/error   SOSCFStart      ....  0.003300
   Hessian update       SOSCFHessUp     .... L-BFGS
 Level Shifting         CNVShift        .... on
   Level shift para.    LevelShift      ....    0.2500
   Turn off err/grad.   ShiftErr        ....    0.0010
 Zerner damping         CNVZerner       .... off
 Static damping         CNVDamp         .... on
   Fraction old density DampFac         ....    0.7000
   Max. Damping (<1)    DampMax         ....    0.9800
   Min. Damping (>=0)   DampMin         ....    0.0000
   Turn off err/grad.   DampErr         ....    0.1000

SCF Procedure:
 Maximum # iterations   MaxIter         ....   125
 SCF integral mode      SCFMode         .... Direct
   Integral package                     .... SHARK and LIBINT hybrid scheme
 Reset frequency        DirectResetFreq ....    20
 Integral Threshold     Thresh          ....  2.500e-11 Eh
 Primitive CutOff       TCut            ....  2.500e-12 Eh

Convergence Tolerance:
 Convergence Check Mode ConvCheckMode   .... Total+1el-Energy
 Convergence forced     ConvForced      .... 0
 Energy Change          TolE            ....  1.000e-08 Eh
 1-El. energy change                    ....  1.000e-05 Eh
 Orbital Gradient       TolG            ....  1.000e-05
 Orbital Rotation angle TolX            ....  1.000e-05
 DIIS Error             TolErr          ....  5.000e-07

---------------------
INITIAL GUESS: MOREAD
---------------------
Guess MOs are being read from file: co2_opt.ges
Input geometry compatible with but different from current geometry
Input basis set matches current basis set (good)
Occupation numbers will be reassigned to an Aufbau configuration
MOs were renormalized
MOs were reorthogonalized (Cholesky)
                      ------------------
                      INITIAL GUESS DONE (   0.0 sec)
                      ------------------
----------------------
INITIAL GUESS ORBITALS
----------------------
                      0         1         2         3         4         5   
                 -19.21260 -19.21248 -10.36360  -1.16877  -1.12921  -0.57009
                   2.00000   2.00000   2.00000   2.00000   2.00000   2.00000
                  --------  --------  --------  --------  --------  --------
  0C   1s        -0.000026 -0.000025  0.466675 -0.072831  0.000055  0.066510
  0C   2s         0.000181  0.000177  0.606982 -0.155943  0.000118  0.144784
  0C   3s         0.004318  0.004208  0.049571  0.278482 -0.000211 -0.259854
  0C   4s        -0.036708 -0.035769 -0.055467  0.080873 -0.000060 -0.302331
  0C   5s         0.005828  0.005679  0.028851 -0.033846  0.000029 -0.084915
  0C   1pz       -0.000000  0.000000 -0.000000 -0.000000  0.000000 -0.000000
  0C   1px       -0.000932  0.000956  0.000000  0.000195  0.257317 -0.000186
  0C   1py       -0.000000 -0.000000  0.000000  0.000000 -0.000000 -0.000000
  0C   2pz       -0.000000  0.000000 -0.000000 -0.000000 -0.000000 -0.000000
  0C   2px        0.001464 -0.001502  0.000000  0.000126  0.165906 -0.000160
  0C   2py       -0.000000 -0.000000  0.000000  0.000000 -0.000000 -0.000000
  0C   3pz       -0.000000 -0.000000 -0.000000  0.000000 -0.000000  0.000000
  0C   3px        0.014746 -0.015133  0.000000 -0.000010 -0.014203 -0.000021
  0C   3py        0.000000  0.000000  0.000000 -0.000000 -0.000000  0.000000
  0C   1dz2       0.000598  0.000583 -0.002594 -0.016956  0.000012  0.008171
  0C   1dxz       0.000000  0.000000 -0.000000  0.000000  0.000000 -0.000000
  0C   1dyz       0.000000  0.000000  0.000000 -0.000000  0.000000 -0.000000
  0C   1dx2y2    -0.001036 -0.001009  0.004493  0.029368 -0.000022 -0.014153
  0C   1dxy      -0.000000 -0.000000  0.000000  0.000000  0.000000 -0.000000
  0C   2dz2       0.006404  0.006240 -0.000545  0.001690 -0.000002  0.005137
  0C   2dxz      -0.000000  0.000000 -0.000000  0.000000  0.000000  0.000000
  0C   2dyz       0.000000  0.000000  0.000000 -0.000000  0.000000 -0.000000
  0C   2dx2y2    -0.011092 -0.010808  0.000944 -0.002926  0.000003 -0.008898
  0C   2dxy      -0.000000  0.000000  0.000000  0.000000  0.000000 -0.000000
  0C   1f0        0.000000 -0.000000  0.000000 -0.000000  0.000000 -0.000000
  0C   1f+1      -0.000781  0.000801  0.000000 -0.000010 -0.012853  0.000008
  0C   1f-1      -0.000000  0.000000 -0.000000 -0.000000 -0.000000  0.000000
  0C   1f+2      -0.000000  0.000000 -0.000000 -0.000000 -0.000000 -0.000000
  0C   1f-2      -0.000000  0.000000  0.000000 -0.000000  0.000000 -0.000000
  0C   1f+3      -0.001008  0.001034  0.000000 -0.000013 -0.016593  0.000010
  0C   1f-3      -0.000000  0.000000 -0.000000 -0.000000 -0.000000  0.000000
  0C   6s         0.001908  0.001859  0.014121 -0.009774  0.000009 -0.009839
  0C   3dz2      -0.001896 -0.001848 -0.004980  0.002672 -0.000002  0.003649
  0C   3dxz       0.000000  0.000000 -0.000000  0.000000  0.000000  0.000000
  0C   3dyz       0.000000 -0.000000 -0.000000 -0.000000  0.000000 -0.000000
  0C   3dx2y2     0.003285  0.003201  0.008626 -0.004628  0.000004 -0.006320
  0C   3dxy       0.000000 -0.000000  0.000000  0.000000 -0.000000 -0.000000
  1O   1s        -0.435127  0.005519 -0.000309 -0.061996 -0.066978 -0.042528
  1O   2s        -0.639346  0.008209 -0.000619 -0.146210 -0.158302 -0.100555
  1O   3s        -0.038450 -0.001438  0.002995  0.217456  0.239057  0.148692
  1O   4s         0.038667  0.012752 -0.007331  0.269867  0.259111  0.242927
  1O   5s        -0.015673  0.013156  0.002891  0.106258  0.057445  0.215018
  1O   1pz       -0.000000  0.000000 -0.000000 -0.000000  0.000000 -0.000000
  1O   1px        0.002872  0.000161 -0.000868 -0.097484 -0.100107  0.247757
  1O   1py        0.000000 -0.000000 -0.000000 -0.000000 -0.000000  0.000000
  1O   2pz        0.000000 -0.000000  0.000000  0.000000 -0.000000 -0.000000
  1O   2px       -0.008738 -0.006706  0.006603 -0.072083 -0.049404  0.168398
  1O   2py       -0.000000  0.000000  0.000000 -0.000000 -0.000000  0.000000
  1O   3pz        0.000000 -0.000000  0.000000 -0.000000 -0.000000 -0.000000
  1O   3px       -0.001386 -0.006135 -0.010903 -0.022309  0.017667  0.062931
  1O   3py       -0.000000 -0.000000 -0.000000 -0.000000  0.000000  0.000000
  1O   1dz2       0.000215 -0.000058 -0.000018 -0.002883 -0.003063  0.003664
  1O   1dxz       0.000000  0.000000  0.000000  0.000000 -0.000000 -0.000000
  1O   1dyz       0.000000  0.000000  0.000000  0.000000 -0.000000  0.000000
  1O   1dx2y2    -0.000373  0.000100  0.000031  0.004993  0.005306 -0.006347
  1O   1dxy      -0.000000 -0.000000  0.000000 -0.000000  0.000000 -0.000000
  1O   2dz2      -0.000922 -0.000669  0.001784 -0.005103 -0.002638  0.004096
  1O   2dxz      -0.000000  0.000000 -0.000000 -0.000000  0.000000  0.000000
  1O   2dyz       0.000000 -0.000000 -0.000000  0.000000 -0.000000  0.000000
  1O   2dx2y2     0.001596  0.001159 -0.003089  0.008838  0.004570 -0.007094
  1O   2dxy       0.000000 -0.000000 -0.000000  0.000000 -0.000000 -0.000000
  1O   1f0        0.000000  0.000000  0.000000  0.000000 -0.000000  0.000000
  1O   1f+1       0.000135  0.000117 -0.000660  0.000967  0.001333 -0.000861
  1O   1f-1       0.000000  0.000000 -0.000000  0.000000 -0.000000 -0.000000
  1O   1f+2       0.000000  0.000000  0.000000  0.000000 -0.000000  0.000000
  1O   1f-2       0.000000  0.000000  0.000000 -0.000000  0.000000 -0.000000
  1O   1f+3       0.000174  0.000152 -0.000852  0.001249  0.001721 -0.001111
  1O   1f-3       0.000000 -0.000000 -0.000000 -0.000000  0.000000 -0.000000
  1O   6s        -0.007697  0.006558 -0.012714  0.017384 -0.000665  0.033807
  1O   4pz       -0.000000 -0.000000 -0.000000 -0.000000 -0.000000 -0.000000
  1O   4px        0.000433 -0.001840 -0.000540 -0.001944  0.001677  0.003573
  1O   4py       -0.000000 -0.000000  0.000000 -0.000000  0.000000 -0.000000
  1O   3dz2      -0.000615 -0.000067 -0.002279 -0.001398  0.004372  0.000306
  1O   3dxz      -0.000000  0.000000 -0.000000  0.000000  0.000000  0.000000
  1O   3dyz      -0.000000 -0.000000  0.000000  0.000000 -0.000000  0.000000
  1O   3dx2y2     0.001065  0.000116  0.003948  0.002421 -0.007573 -0.000529
  1O   3dxy       0.000000  0.000000  0.000000  0.000000 -0.000000  0.000000
  2O   1s        -0.005749 -0.435124 -0.000309 -0.061895  0.067071 -0.042483
  2O   2s        -0.008348 -0.639344 -0.000619 -0.145971  0.158520 -0.100450
  2O   3s        -0.002433 -0.038400  0.002995  0.217094 -0.239380  0.148547
  2O   4s         0.013749  0.038323 -0.007331  0.269477 -0.259515  0.242632
  2O   5s         0.012746 -0.016008  0.002891  0.106173 -0.057608  0.214709
  2O   1pz        0.000000  0.000000  0.000000 -0.000000 -0.000000 -0.000000
  2O   1px       -0.000235 -0.002867  0.000868  0.097333 -0.100258 -0.247347
  2O   1py       -0.000000  0.000000 -0.000000 -0.000000  0.000000  0.000000
  2O   2pz       -0.000000 -0.000000 -0.000000  0.000000  0.000000 -0.000000
  2O   2px        0.006930  0.008562 -0.006603  0.072011 -0.049518 -0.168135
  2O   2py       -0.000000  0.000000  0.000000 -0.000000  0.000000  0.000000
  2O   3pz        0.000000  0.000000  0.000000  0.000000  0.000000 -0.000000
  2O   3px        0.006170  0.001227  0.010903  0.022337  0.017630 -0.062852
  2O   3py       -0.000000 -0.000000 -0.000000 -0.000000 -0.000000 -0.000000
  2O   1dz2      -0.000052  0.000217 -0.000018 -0.002878  0.003068  0.003658
  2O   1dxz       0.000000 -0.000000 -0.000000 -0.000000 -0.000000 -0.000000
  2O   1dyz      -0.000000 -0.000000  0.000000  0.000000  0.000000  0.000000
  2O   1dx2y2     0.000090 -0.000375  0.000031  0.004985 -0.005313 -0.006336
  2O   1dxy       0.000000  0.000000 -0.000000 -0.000000  0.000000  0.000000
  2O   2dz2      -0.000693 -0.000904  0.001783 -0.005099  0.002646  0.004091
  2O   2dxz       0.000000 -0.000000  0.000000  0.000000  0.000000  0.000000
  2O   2dyz      -0.000000  0.000000  0.000000 -0.000000  0.000000 -0.000000
  2O   2dx2y2     0.001200  0.001566 -0.003089  0.008832 -0.004584 -0.007085
  2O   2dxy      -0.000000  0.000000  0.000000 -0.000000 -0.000000  0.000000
  2O   1f0       -0.000000  0.000000  0.000000  0.000000  0.000000  0.000000
  2O   1f+1      -0.000121 -0.000132  0.000660 -0.000965  0.001335  0.000859
  2O   1f-1      -0.000000 -0.000000 -0.000000  0.000000  0.000000 -0.000000
  2O   1f+2      -0.000000 -0.000000 -0.000000  0.000000  0.000000  0.000000
  2O   1f-2      -0.000000  0.000000  0.000000 -0.000000  0.000000 -0.000000
  2O   1f+3      -0.000156 -0.000170  0.000852 -0.001246  0.001723  0.001108
  2O   1f-3       0.000000 -0.000000 -0.000000  0.000000 -0.000000 -0.000000
  2O   6s         0.006356 -0.007864 -0.012713  0.017386  0.000636  0.033745
  2O   4pz        0.000000  0.000000 -0.000000 -0.000000  0.000000  0.000000
  2O   4px        0.001828 -0.000480  0.000540  0.001947  0.001673 -0.003573
  2O   4py       -0.000000 -0.000000  0.000000  0.000000 -0.000000 -0.000000
  2O   3dz2      -0.000083 -0.000613 -0.002279 -0.001404 -0.004370  0.000310
  2O   3dxz       0.000000 -0.000000  0.000000 -0.000000  0.000000 -0.000000
  2O   3dyz      -0.000000 -0.000000  0.000000  0.000000 -0.000000  0.000000
  2O   3dx2y2     0.000144  0.001062  0.003948  0.002433  0.007569 -0.000536
  2O   3dxy      -0.000000 -0.000000 -0.000000 -0.000000 -0.000000 -0.000000
                      6         7         8         9        10        11   
                  -0.52823  -0.52486  -0.52486  -0.38097  -0.38097  -0.01778
                   2.00000   2.00000   2.00000   2.00000   2.00000   0.00000
                  --------  --------  --------  --------  --------  --------
  0C   1s         0.000046 -0.000000  0.000000 -0.000000 -0.000000 -0.014298
  0C   2s         0.000100 -0.000000  0.000000 -0.000000 -0.000000 -0.021802
  0C   3s        -0.000179 -0.000000 -0.000000 -0.000000  0.000000 -0.040490
  0C   4s        -0.000205  0.000000  0.000000  0.000000 -0.000000  0.250714
  0C   5s        -0.000054 -0.000000  0.000000  0.000000 -0.000000  2.355083
  0C   1pz       -0.000001 -0.298525  0.048971  0.000008  0.000052  0.000000
  0C   1px        0.265432 -0.000001  0.000000  0.000000 -0.000000  0.000002
  0C   1py       -0.000000  0.048971  0.298525  0.000052 -0.000008 -0.000004
  0C   2pz       -0.000001 -0.224025  0.036750  0.000007  0.000041  0.000000
  0C   2px        0.229957 -0.000001  0.000000  0.000000 -0.000000  0.000019
  0C   2py       -0.000000  0.036750  0.224025  0.000041 -0.000007 -0.000004
  0C   3pz       -0.000000 -0.027957  0.004586  0.000001  0.000006 -0.000000
  0C   3px        0.029955  0.000000  0.000000  0.000000  0.000000  0.000027
  0C   3py       -0.000000  0.004586  0.027957  0.000006 -0.000001 -0.000001
  0C   1dz2       0.000005 -0.000000 -0.000000  0.000000  0.000000  0.018417
  0C   1dxz      -0.000000 -0.000007  0.000001 -0.005816 -0.036257 -0.000000
  0C   1dyz      -0.000000 -0.000000  0.000000 -0.000000  0.000000  0.000000
  0C   1dx2y2    -0.000009 -0.000000 -0.000000 -0.000000 -0.000000 -0.031899
  0C   1dxy       0.000000  0.000001  0.000007 -0.036257  0.005816 -0.000000
  0C   2dz2       0.000003 -0.000000 -0.000000 -0.000000  0.000000 -0.021957
  0C   2dxz       0.000000 -0.000010  0.000002 -0.008591 -0.053556  0.000000
  0C   2dyz      -0.000000 -0.000000  0.000000 -0.000000 -0.000000 -0.000000
  0C   2dx2y2    -0.000005  0.000000  0.000000  0.000000 -0.000000  0.038031
  0C   2dxy      -0.000000  0.000002  0.000010 -0.053556  0.008591 -0.000000
  0C   1f0        0.000000  0.011712 -0.001921 -0.000000 -0.000002  0.000000
  0C   1f+1      -0.011595  0.000000 -0.000000 -0.000000  0.000000 -0.000000
  0C   1f-1       0.000000 -0.000784 -0.004782 -0.000001  0.000000  0.000000
  0C   1f+2      -0.000000 -0.015120  0.002480  0.000000  0.000003 -0.000000
  0C   1f-2      -0.000000  0.000000 -0.000000 -0.000000 -0.000000 -0.000000
  0C   1f+3      -0.014969  0.000000 -0.000000 -0.000000  0.000000 -0.000000
  0C   1f-3       0.000000 -0.003038 -0.018518 -0.000003  0.000001  0.000000
  0C   6s        -0.000005 -0.000000  0.000000  0.000000 -0.000000  4.262325
  0C   3dz2       0.000002 -0.000000 -0.000000 -0.000000  0.000000 -0.271530
  0C   3dxz       0.000000 -0.000000  0.000000 -0.000484 -0.003018  0.000000
  0C   3dyz      -0.000000  0.000000 -0.000000  0.000000 -0.000000  0.000000
  0C   3dx2y2    -0.000003 -0.000000  0.000000  0.000000  0.000000  0.470303
  0C   3dxy       0.000000  0.000000  0.000000 -0.003018  0.000484 -0.000000
  1O   1s         0.033447 -0.000000  0.000000 -0.000000  0.000000  0.022588
  1O   2s         0.078122 -0.000000 -0.000000 -0.000000  0.000000  0.054806
  1O   3s        -0.109919  0.000000  0.000000  0.000000 -0.000000 -0.094614
  1O   4s        -0.216257  0.000001 -0.000000 -0.000000  0.000000 -0.152952
  1O   5s        -0.223921  0.000001 -0.000001 -0.000000  0.000000 -0.684262
  1O   1pz       -0.000001 -0.258909  0.042473 -0.055234 -0.344335 -0.000000
  1O   1px       -0.294641  0.000001 -0.000001  0.000001 -0.000000  0.096914
  1O   1py       -0.000001  0.042473  0.258909 -0.344335  0.055233  0.000001
  1O   2pz       -0.000001 -0.201122  0.032993 -0.045242 -0.282045 -0.000000
  1O   2px       -0.189614  0.000000 -0.000000  0.000001 -0.000000  0.107099
  1O   2py       -0.000000  0.032993  0.201122 -0.282045  0.045242  0.000001
  1O   3pz       -0.000000 -0.109274  0.017926 -0.028848 -0.179846 -0.000000
  1O   3px       -0.057318  0.000000  0.000000  0.000000 -0.000000  0.224345
  1O   3py       -0.000000  0.017926  0.109274 -0.179846  0.028848  0.000002
  1O   1dz2      -0.004382  0.000000 -0.000000  0.000000 -0.000000  0.000999
  1O   1dxz       0.000000  0.008312 -0.001363  0.000973  0.006063 -0.000000
  1O   1dyz       0.000000  0.000000 -0.000000 -0.000000  0.000000  0.000000
  1O   1dx2y2     0.007590  0.000000  0.000000 -0.000000 -0.000000 -0.001730
  1O   1dxy       0.000000 -0.001364 -0.008312  0.006063 -0.000973  0.000000
  1O   2dz2      -0.003632 -0.000000  0.000000  0.000000  0.000000  0.005666
  1O   2dxz       0.000000  0.017201 -0.002822  0.002770  0.017269  0.000000
  1O   2dyz       0.000000  0.000000 -0.000000  0.000000  0.000000  0.000000
  1O   2dx2y2     0.006291 -0.000000  0.000000 -0.000000  0.000000 -0.009813
  1O   2dxy      -0.000000 -0.002822 -0.017201  0.017269 -0.002770  0.000000
  1O   1f0        0.000000  0.002071 -0.000340  0.000361  0.002248 -0.000000
  1O   1f+1       0.001537 -0.000000 -0.000000 -0.000000  0.000000 -0.000187
  1O   1f-1      -0.000000 -0.000139 -0.000846  0.000918 -0.000147  0.000000
  1O   1f+2       0.000000 -0.002675  0.000439 -0.000466 -0.002903 -0.000000
  1O   1f-2      -0.000000  0.000000 -0.000000 -0.000000 -0.000000 -0.000000
  1O   1f+3       0.001984  0.000000  0.000000 -0.000000  0.000000 -0.000242
  1O   1f-3      -0.000000 -0.000537 -0.003275  0.003555 -0.000570  0.000000
  1O   6s        -0.045102  0.000000 -0.000000 -0.000000  0.000000 -2.560685
  1O   4pz       -0.000000 -0.007927  0.001300 -0.003481 -0.021703 -0.000000
  1O   4px        0.000012  0.000000  0.000000  0.000000 -0.000000  0.435161
  1O   4py       -0.000000  0.001300  0.007927 -0.021703  0.003481  0.000001
  1O   3dz2       0.002850  0.000000  0.000000  0.000000 -0.000000 -0.000383
  1O   3dxz       0.000000  0.008170 -0.001340  0.000845  0.005266 -0.000000
  1O   3dyz       0.000000  0.000000 -0.000000 -0.000000  0.000000 -0.000000
  1O   3dx2y2    -0.004937  0.000000 -0.000000 -0.000000  0.000000  0.000664
  1O   3dxy      -0.000000 -0.001340 -0.008170  0.005266 -0.000845  0.000000
  2O   1s        -0.033506  0.000000 -0.000000  0.000000  0.000000  0.022586
  2O   2s        -0.078263  0.000000 -0.000000  0.000000  0.000000  0.054803
  2O   3s         0.110128 -0.000000  0.000000 -0.000000 -0.000000 -0.094608
  2O   4s         0.216591 -0.000001  0.000000 -0.000000 -0.000000 -0.152940
  2O   5s         0.224211 -0.000001 -0.000000  0.000000  0.000000 -0.684208
  2O   1pz       -0.000001 -0.258783  0.042452  0.055249  0.344429 -0.000000
  2O   1px       -0.294980  0.000001  0.000000  0.000001 -0.000000 -0.096913
  2O   1py        0.000000  0.042452  0.258783  0.344429 -0.055249  0.000001
  2O   2pz       -0.000001 -0.201019  0.032976  0.045254  0.282119 -0.000000
  2O   2px       -0.189847  0.000001 -0.000000  0.000000 -0.000000 -0.107094
  2O   2py        0.000000  0.032976  0.201019  0.282119 -0.045254  0.000001
  2O   3pz       -0.000000 -0.109209  0.017915  0.028855  0.179887 -0.000000
  2O   3px       -0.057407  0.000000 -0.000000  0.000000  0.000000 -0.224337
  2O   3py        0.000000  0.017915  0.109209  0.179887 -0.028855  0.000002
  2O   1dz2       0.004387  0.000000 -0.000000  0.000000  0.000000  0.000999
  2O   1dxz      -0.000000 -0.008309  0.001363  0.000973  0.006066  0.000000
  2O   1dyz      -0.000000  0.000000  0.000000 -0.000000 -0.000000  0.000000
  2O   1dx2y2    -0.007599  0.000000  0.000000  0.000000  0.000000 -0.001730
  2O   1dxy       0.000000  0.001363  0.008309  0.006066 -0.000973 -0.000000
  2O   2dz2       0.003638 -0.000000  0.000000 -0.000000 -0.000000  0.005666
  2O   2dxz      -0.000000 -0.017195  0.002821  0.002771  0.017275 -0.000000
  2O   2dyz      -0.000000  0.000000 -0.000000  0.000000 -0.000000 -0.000000
  2O   2dx2y2    -0.006301  0.000000  0.000000  0.000000 -0.000000 -0.009813
  2O   2dxy       0.000000  0.002821  0.017195  0.017275 -0.002771 -0.000000
  2O   1f0        0.000000  0.002071 -0.000340 -0.000361 -0.002249 -0.000000
  2O   1f+1       0.001538 -0.000000  0.000000 -0.000000  0.000000  0.000187
  2O   1f-1      -0.000000 -0.000139 -0.000846 -0.000919  0.000147  0.000000
  2O   1f+2      -0.000000 -0.002674  0.000439  0.000466  0.002904  0.000000
  2O   1f-2      -0.000000  0.000000 -0.000000 -0.000000 -0.000000  0.000000
  2O   1f+3       0.001985 -0.000000 -0.000000 -0.000000  0.000000  0.000242
  2O   1f-3      -0.000000 -0.000537 -0.003274 -0.003556  0.000570  0.000000
  2O   6s         0.045143 -0.000000 -0.000000  0.000000  0.000000 -2.560639
  2O   4pz       -0.000000 -0.007920  0.001299  0.003482  0.021706  0.000000
  2O   4px        0.000006  0.000000 -0.000000  0.000000  0.000000 -0.435102
  2O   4py        0.000000  0.001299  0.007920  0.021706 -0.003482  0.000001
  2O   3dz2      -0.002850  0.000000  0.000000 -0.000000  0.000000 -0.000389
  2O   3dxz      -0.000000 -0.008168  0.001340  0.000845  0.005269  0.000000
  2O   3dyz       0.000000  0.000000  0.000000 -0.000000 -0.000000 -0.000000
  2O   3dx2y2     0.004936 -0.000000 -0.000000  0.000000  0.000000  0.000673
  2O   3dxy      -0.000000  0.001340  0.008168  0.005269 -0.000845 -0.000000
                     12        13        14        15        16        17   
                   0.02451   0.02451   0.05586   0.05705   0.05705   0.08606
                   0.00000   0.00000   0.00000   0.00000   0.00000   0.00000
                  --------  --------  --------  --------  --------  --------
  0C   1s        -0.000000 -0.000000  0.000000 -0.000000  0.000000 -0.001331
  0C   2s        -0.000000 -0.000000 -0.000000  0.000000 -0.000000  0.009006
  0C   3s         0.000001  0.000001  0.000008 -0.000001  0.000000 -0.193428
  0C   4s        -0.000001 -0.000003 -0.000127  0.000004 -0.000001  1.763520
  0C   5s        -0.000016 -0.000034 -0.000101  0.000006 -0.000001  5.966476
  0C   1pz        0.380258 -0.176635  0.000000 -0.042741 -0.078999  0.000000
  0C   1px       -0.000000 -0.000000 -0.038607 -0.000000 -0.000000 -0.000002
  0C   1py       -0.176635 -0.380258 -0.000000 -0.078999  0.042741 -0.000003
  0C   2pz        0.381978 -0.177434  0.000000 -0.056170 -0.103819  0.000000
  0C   2px       -0.000000 -0.000000 -0.696849 -0.000000 -0.000002 -0.000105
  0C   2py       -0.177434 -0.381978 -0.000000 -0.103819  0.056170 -0.000002
  0C   3pz        0.402891 -0.187148  0.000003 -0.453563 -0.838320 -0.000000
  0C   3px       -0.000000 -0.000000 -1.633659 -0.000001 -0.000004 -0.000288
  0C   3py       -0.187148 -0.402891 -0.000001 -0.838320  0.453563  0.000006
  0C   1dz2       0.000000  0.000000  0.000002 -0.000000  0.000000 -0.019789
  0C   1dxz       0.000001 -0.000001 -0.000000 -0.000000 -0.000000 -0.000000
  0C   1dyz      -0.000000  0.000000 -0.000000 -0.000000 -0.000000  0.000000
  0C   1dx2y2    -0.000000 -0.000000 -0.000004  0.000000 -0.000000  0.034275
  0C   1dxy      -0.000001 -0.000001  0.000000 -0.000000  0.000000 -0.000000
  0C   2dz2       0.000000  0.000001  0.000005 -0.000001  0.000000 -0.183272
  0C   2dxz       0.000005 -0.000002 -0.000000 -0.000003 -0.000006  0.000000
  0C   2dyz      -0.000000  0.000000  0.000000 -0.000000 -0.000000 -0.000000
  0C   2dx2y2    -0.000001 -0.000002 -0.000009  0.000001 -0.000000  0.317436
  0C   2dxy      -0.000002 -0.000005 -0.000000 -0.000006  0.000003  0.000000
  0C   1f0        0.002971 -0.001380  0.000000 -0.000556 -0.001027 -0.000000
  0C   1f+1      -0.000000 -0.000000  0.017397  0.000000  0.000000  0.000003
  0C   1f-1      -0.000563 -0.001213 -0.000000 -0.000419  0.000227 -0.000000
  0C   1f+2      -0.003836  0.001782 -0.000000  0.000718  0.001326  0.000000
  0C   1f-2       0.000000 -0.000000 -0.000000  0.000000 -0.000000  0.000000
  0C   1f+3       0.000000  0.000000  0.022459  0.000000  0.000000  0.000003
  0C   1f-3      -0.002182 -0.004698 -0.000000 -0.001624  0.000879 -0.000000
  0C   6s        -0.000028 -0.000057  0.000088 -0.000005  0.000005  5.134106
  0C   3dz2       0.000002  0.000004 -0.000046  0.000000 -0.000000 -0.186354
  0C   3dxz       0.000004 -0.000002 -0.000000 -0.000021 -0.000038  0.000000
  0C   3dyz      -0.000001  0.000000  0.000000 -0.000000 -0.000001  0.000000
  0C   3dx2y2    -0.000004 -0.000008  0.000079  0.000001 -0.000000  0.322775
  0C   3dxy      -0.000002 -0.000004 -0.000001 -0.000038  0.000021  0.000000
  1O   1s        -0.000000 -0.000000 -0.010027 -0.000000 -0.000000 -0.005734
  1O   2s        -0.000000 -0.000000 -0.018888 -0.000000 -0.000000 -0.017191
  1O   3s         0.000000  0.000000  0.016031  0.000000  0.000000  0.058150
  1O   4s         0.000000  0.000001  0.064197 -0.000000  0.000000 -0.077229
  1O   5s         0.000004  0.000009  1.075007 -0.000001  0.000003 -1.093737
  1O   1pz       -0.239693  0.111340  0.000000 -0.027640 -0.051087  0.000000
  1O   1px        0.000000  0.000000  0.039448 -0.000000  0.000000 -0.084027
  1O   1py        0.111340  0.239693  0.000000 -0.051087  0.027640  0.000000
  1O   2pz       -0.211623  0.098301  0.000000 -0.034496 -0.063759  0.000000
  1O   2px       -0.000000 -0.000001 -0.066376  0.000000 -0.000000  0.031271
  1O   2py        0.098301  0.211623  0.000000 -0.063759  0.034496  0.000001
  1O   3pz       -0.272596  0.126624 -0.000001  0.064005  0.118301 -0.000000
  1O   3px       -0.000002 -0.000003 -0.607373  0.000000 -0.000002  0.917944
  1O   3py        0.126624  0.272596 -0.000000  0.118301 -0.064005  0.000001
  1O   1dz2       0.000000 -0.000000  0.000935  0.000000  0.000000 -0.002319
  1O   1dxz      -0.006629  0.003079 -0.000000  0.000663  0.001226 -0.000000
  1O   1dyz      -0.000000  0.000000  0.000000  0.000000  0.000000 -0.000000
  1O   1dx2y2     0.000000 -0.000000 -0.001620 -0.000000  0.000000  0.004016
  1O   1dxy       0.003079  0.006629 -0.000000  0.001226 -0.000663  0.000000
  1O   2dz2      -0.000000 -0.000000 -0.016249  0.000000 -0.000000  0.016628
  1O   2dxz      -0.014978  0.006958 -0.000000  0.009042  0.016713  0.000000
  1O   2dyz      -0.000000  0.000000  0.000000  0.000000  0.000000  0.000000
  1O   2dx2y2     0.000000  0.000000  0.028144 -0.000000  0.000000 -0.028801
  1O   2dxy       0.006958  0.014978  0.000000  0.016713 -0.009042  0.000000
  1O   1f0       -0.001359  0.000631 -0.000000  0.000684  0.001265  0.000000
  1O   1f+1      -0.000000 -0.000000  0.001528  0.000000  0.000000 -0.000848
  1O   1f-1       0.000257  0.000553  0.000000  0.000516 -0.000279  0.000000
  1O   1f+2       0.001753 -0.000814  0.000000 -0.000884 -0.001633 -0.000000
  1O   1f-2       0.000000 -0.000000 -0.000000 -0.000000 -0.000000  0.000000
  1O   1f+3      -0.000000  0.000000  0.001972 -0.000000  0.000000 -0.001095
  1O   1f-3       0.000997  0.002147  0.000000  0.002000 -0.001082  0.000000
  1O   6s         0.000019  0.000039  2.886189  0.000001  0.000006 -4.874283
  1O   4pz       -0.048743  0.022642 -0.000003  0.419232  0.774867 -0.000001
  1O   4px       -0.000004 -0.000007 -1.841097 -0.000001 -0.000005  1.998637
  1O   4py        0.022642  0.048743  0.000001  0.774867 -0.419232 -0.000003
  1O   3dz2      -0.000000 -0.000000 -0.116788 -0.000000 -0.000000  0.134006
  1O   3dxz      -0.047693  0.022154  0.000001 -0.083640 -0.154591  0.000000
  1O   3dyz       0.000000 -0.000000 -0.000000  0.000000  0.000000 -0.000000
  1O   3dx2y2     0.000000  0.000000  0.202283 -0.000000  0.000001 -0.232105
  1O   3dxy       0.022154  0.047693  0.000000 -0.154591  0.083640  0.000001
  2O   1s        -0.000000 -0.000000  0.010028 -0.000000  0.000000 -0.005730
  2O   2s        -0.000000 -0.000000  0.018890 -0.000000  0.000000 -0.017181
  2O   3s         0.000000  0.000000 -0.016040  0.000000 -0.000000  0.058129
  2O   4s         0.000000  0.000001 -0.064181 -0.000001 -0.000000 -0.077253
  2O   5s         0.000004  0.000009 -1.075048 -0.000003 -0.000002 -1.094088
  2O   1pz       -0.239680  0.111334  0.000000 -0.027632 -0.051072 -0.000000
  2O   1px       -0.000000 -0.000000  0.039422  0.000000  0.000000  0.084035
  2O   1py        0.111334  0.239680 -0.000001 -0.051072  0.027632  0.000000
  2O   2pz       -0.211612  0.098297  0.000000 -0.034488 -0.063745 -0.000000
  2O   2px        0.000000  0.000001 -0.066393 -0.000000  0.000000 -0.031293
  2O   2py        0.098297  0.211612 -0.000000 -0.063745  0.034488  0.000001
  2O   3pz       -0.272602  0.126627 -0.000001  0.063985  0.118263  0.000000
  2O   3px        0.000001  0.000003 -0.607288 -0.000001 -0.000001 -0.918117
  2O   3py        0.126627  0.272602  0.000001  0.118263 -0.063985  0.000001
  2O   1dz2       0.000000 -0.000000 -0.000935 -0.000000 -0.000000 -0.002319
  2O   1dxz       0.006629 -0.003079  0.000000 -0.000663 -0.001225 -0.000000
  2O   1dyz      -0.000000  0.000000  0.000000 -0.000000  0.000000 -0.000000
  2O   1dx2y2     0.000000 -0.000000  0.001620 -0.000000  0.000000  0.004017
  2O   1dxy      -0.003079 -0.006629 -0.000000 -0.001225  0.000663 -0.000000
  2O   2dz2      -0.000000 -0.000000  0.016249  0.000000  0.000000  0.016634
  2O   2dxz       0.014975 -0.006956  0.000000 -0.009042 -0.016712  0.000000
  2O   2dyz      -0.000000  0.000000  0.000000  0.000000  0.000000 -0.000000
  2O   2dx2y2     0.000000  0.000000 -0.028144 -0.000000 -0.000000 -0.028811
  2O   2dxy      -0.006956 -0.014975  0.000000 -0.016712  0.009042 -0.000000
  2O   1f0       -0.001359  0.000631 -0.000000  0.000684  0.001265  0.000000
  2O   1f+1       0.000000 -0.000000  0.001528  0.000000  0.000000  0.000849
  2O   1f-1       0.000257  0.000553 -0.000000  0.000516 -0.000279  0.000000
  2O   1f+2       0.001752 -0.000814  0.000000 -0.000883 -0.001633  0.000000
  2O   1f-2      -0.000000  0.000000 -0.000000  0.000000  0.000000 -0.000000
  2O   1f+3       0.000000  0.000000  0.001972  0.000000  0.000000  0.001096
  2O   1f-3       0.000997  0.002147 -0.000000  0.002000 -0.001082  0.000000
  2O   6s         0.000018  0.000039 -2.886226 -0.000003 -0.000010 -4.875038
  2O   4pz       -0.048784  0.022661 -0.000003  0.419116  0.774652  0.000001
  2O   4px        0.000004  0.000007 -1.840779 -0.000001 -0.000006 -1.999060
  2O   4py        0.022661  0.048784  0.000001  0.774652 -0.419116 -0.000003
  2O   3dz2      -0.000000 -0.000000  0.116764  0.000000  0.000000  0.134040
  2O   3dxz       0.047682 -0.022149 -0.000001  0.083630  0.154573  0.000000
  2O   3dyz       0.000000 -0.000000 -0.000000  0.000000  0.000000 -0.000000
  2O   3dx2y2     0.000000  0.000000 -0.202242 -0.000000 -0.000001 -0.232164
  2O   3dxy      -0.022149 -0.047682  0.000000  0.154573 -0.083630 -0.000001
                     18        19        20        21        22        23   
                   0.10379   0.10379   0.12682   0.17819   0.17819   0.19326
                   0.00000   0.00000   0.00000   0.00000   0.00000   0.00000
                  --------  --------  --------  --------  --------  --------
  0C   1s        -0.000000  0.000000 -0.031339  0.000000  0.000000  0.000002
  0C   2s        -0.000000  0.000000 -0.082010  0.000000  0.000000  0.000003
  0C   3s        -0.000000 -0.000000  0.155693  0.000000 -0.000000 -0.000012
  0C   4s         0.000001  0.000000  0.664846 -0.000000  0.000000  0.000071
  0C   5s        -0.000002  0.000003 -6.273195 -0.000001 -0.000000  0.000243
  0C   1pz       -0.000000 -0.000001 -0.000000 -0.000000  0.000000 -0.000000
  0C   1px        0.000000 -0.000000  0.000001  0.000000  0.000000 -0.016070
  0C   1py       -0.000001  0.000000  0.000003  0.000000  0.000000  0.000000
  0C   2pz       -0.000001 -0.000006 -0.000000 -0.000000  0.000000 -0.000000
  0C   2px        0.000000  0.000000 -0.000027  0.000000  0.000000 -0.676823
  0C   2py       -0.000006  0.000001  0.000002  0.000000  0.000000 -0.000000
  0C   3pz       -0.000012 -0.000072  0.000000  0.000000 -0.000000  0.000001
  0C   3px        0.000002 -0.000000 -0.000028  0.000001  0.000000 -5.039293
  0C   3py       -0.000072  0.000012 -0.000010 -0.000000 -0.000000 -0.000000
  0C   1dz2       0.000000 -0.000000  0.021629 -0.000002 -0.023997 -0.000002
  0C   1dxz       0.000232  0.001405 -0.000000 -0.000000 -0.000000  0.000000
  0C   1dyz       0.000000 -0.000000 -0.000000 -0.027709  0.000002 -0.000000
  0C   1dx2y2    -0.000000  0.000000 -0.037462 -0.000001 -0.013855  0.000003
  0C   1dxy       0.001405 -0.000232 -0.000000  0.000000  0.000000  0.000000
  0C   2dz2      -0.000000 -0.000000  0.166601 -0.000001 -0.007729 -0.000017
  0C   2dxz       0.017245  0.104382  0.000000 -0.000000 -0.000000 -0.000000
  0C   2dyz       0.000000  0.000000  0.000000 -0.008926  0.000001 -0.000000
  0C   2dx2y2     0.000000  0.000000 -0.288562 -0.000000 -0.004462  0.000030
  0C   2dxy       0.104382 -0.017245 -0.000000  0.000000  0.000000 -0.000001
  0C   1f0       -0.000000 -0.000000  0.000000 -0.000000 -0.000000  0.000000
  0C   1f+1      -0.000000 -0.000000  0.000001 -0.000000 -0.000000  0.014843
  0C   1f-1      -0.000000  0.000000 -0.000000 -0.000000  0.000000  0.000000
  0C   1f+2       0.000000  0.000000 -0.000000  0.000000 -0.000000 -0.000000
  0C   1f-2       0.000000  0.000000  0.000000 -0.000000  0.000000 -0.000000
  0C   1f+3      -0.000000 -0.000000  0.000001 -0.000000  0.000000  0.019162
  0C   1f-3      -0.000000  0.000000 -0.000000 -0.000000  0.000000  0.000000
  0C   6s        -0.000005  0.000003-11.671298 -0.000000  0.000000  0.000331
  0C   3dz2       0.000001 -0.000000  1.339520 -0.000076 -0.937447 -0.000073
  0C   3dxz       0.145724  0.882056  0.000000 -0.000000 -0.000000  0.000000
  0C   3dyz       0.000000 -0.000000 -0.000000 -1.082469  0.000088 -0.000000
  0C   3dx2y2    -0.000001  0.000001 -2.320117 -0.000044 -0.541235  0.000127
  0C   3dxy       0.882056 -0.145724 -0.000000  0.000000  0.000000 -0.000007
  1O   1s        -0.000000 -0.000000  0.024049 -0.000000 -0.000000  0.020530
  1O   2s        -0.000000 -0.000000  0.056892 -0.000000 -0.000000  0.059389
  1O   3s         0.000000 -0.000000 -0.092742  0.000000  0.000000 -0.124859
  1O   4s         0.000000 -0.000000 -0.185969  0.000000 -0.000000 -0.215044
  1O   5s        -0.000002 -0.000001  1.494487 -0.000000 -0.000000  1.428664
  1O   1pz        0.011255  0.068125  0.000000  0.000000 -0.000000 -0.000000
  1O   1px       -0.000000  0.000000  0.092522 -0.000000 -0.000000 -0.059411
  1O   1py        0.068125 -0.011255  0.000000 -0.000000 -0.000000  0.000001
  1O   2pz        0.013158  0.079642  0.000000  0.000000 -0.000000  0.000000
  1O   2px        0.000000  0.000000  0.004523 -0.000000  0.000000 -0.093532
  1O   2py        0.079642 -0.013158 -0.000000 -0.000000 -0.000000  0.000001
  1O   3pz       -0.052507 -0.317823 -0.000000  0.000001  0.000000 -0.000000
  1O   3px        0.000001  0.000000 -0.206910  0.000000  0.000000 -1.107116
  1O   3py       -0.317823  0.052507 -0.000001 -0.000000 -0.000001  0.000001
  1O   1dz2      -0.000000  0.000000  0.000114 -0.000000 -0.002015  0.002345
  1O   1dxz      -0.000462 -0.002796  0.000000  0.000000 -0.000000  0.000000
  1O   1dyz       0.000000  0.000000  0.000000 -0.002327  0.000000  0.000000
  1O   1dx2y2     0.000000  0.000000 -0.000198 -0.000000 -0.001163 -0.004062
  1O   1dxy      -0.002796  0.000462 -0.000000 -0.000000 -0.000000 -0.000000
  1O   2dz2       0.000000  0.000000 -0.013739 -0.000002 -0.025133 -0.021051
  1O   2dxz       0.000226  0.001369 -0.000000  0.000000  0.000000 -0.000000
  1O   2dyz      -0.000000 -0.000000 -0.000000 -0.029022  0.000002 -0.000000
  1O   2dx2y2    -0.000000 -0.000000  0.023797 -0.000001 -0.014511  0.036462
  1O   2dxy       0.001369 -0.000226  0.000000  0.000000 -0.000000 -0.000000
  1O   1f0        0.000023  0.000140 -0.000000  0.000000 -0.000000  0.000000
  1O   1f+1      -0.000000 -0.000000  0.000360  0.000000  0.001832  0.001445
  1O   1f-1       0.000057 -0.000009 -0.000000  0.000000  0.000000 -0.000000
  1O   1f+2      -0.000030 -0.000180 -0.000000 -0.000000 -0.000000  0.000000
  1O   1f-2       0.000000  0.000000  0.000000  0.002318 -0.000000 -0.000000
  1O   1f+3      -0.000000 -0.000000  0.000465 -0.000000 -0.001419  0.001865
  1O   1f-3       0.000221 -0.000037 -0.000000 -0.000000 -0.000000 -0.000000
  1O   6s         0.000002 -0.000003  8.879015 -0.000001 -0.000001  8.033736
  1O   4pz       -0.284903 -1.724493 -0.000000 -0.000001  0.000000 -0.000000
  1O   4px        0.000001 -0.000000 -0.441515  0.000000  0.000000 -2.566438
  1O   4py       -1.724493  0.284903  0.000004  0.000000  0.000001  0.000005
  1O   3dz2      -0.000000  0.000000  0.062804  0.000005  0.064678 -0.007181
  1O   3dxz       0.027782  0.168160  0.000000  0.000000 -0.000000  0.000000
  1O   3dyz       0.000000  0.000001  0.000000  0.074683 -0.000006  0.000000
  1O   3dx2y2    -0.000001  0.000000 -0.108779  0.000003  0.037342  0.012439
  1O   3dxy       0.168160 -0.027782 -0.000002 -0.000000 -0.000000 -0.000000
  2O   1s         0.000000 -0.000000  0.024047  0.000000  0.000000 -0.020530
  2O   2s         0.000000 -0.000000  0.056885  0.000000  0.000000 -0.059390
  2O   3s        -0.000000  0.000000 -0.092723 -0.000000  0.000000  0.124860
  2O   4s        -0.000000  0.000000 -0.185948 -0.000000 -0.000000  0.215039
  2O   5s         0.000002 -0.000001  1.494421  0.000000  0.000000 -1.428937
  2O   1pz       -0.011257 -0.068140 -0.000000  0.000000 -0.000000 -0.000000
  2O   1px       -0.000000 -0.000000 -0.092523  0.000000  0.000000 -0.059379
  2O   1py       -0.068140  0.011257  0.000000 -0.000000 -0.000000 -0.000001
  2O   2pz       -0.013160 -0.079658 -0.000000  0.000000 -0.000000  0.000000
  2O   2px        0.000000 -0.000000 -0.004536  0.000000 -0.000000 -0.093526
  2O   2py       -0.079658  0.013160 -0.000000 -0.000000 -0.000000 -0.000001
  2O   3pz        0.052507  0.317821 -0.000000  0.000001 -0.000000 -0.000000
  2O   3px       -0.000000 -0.000000  0.206870  0.000000  0.000000 -1.107194
  2O   3py        0.317821 -0.052507 -0.000001 -0.000000 -0.000001 -0.000001
  2O   1dz2      -0.000000 -0.000000  0.000114 -0.000000 -0.002014 -0.002346
  2O   1dxz      -0.000462 -0.002796  0.000000 -0.000000  0.000000  0.000000
  2O   1dyz       0.000000 -0.000000 -0.000000 -0.002326  0.000000 -0.000000
  2O   1dx2y2    -0.000000 -0.000000 -0.000198 -0.000000 -0.001163  0.004063
  2O   1dxy      -0.002796  0.000462  0.000000  0.000000  0.000000 -0.000000
  2O   2dz2      -0.000000  0.000000 -0.013738 -0.000002 -0.025131  0.021055
  2O   2dxz       0.000226  0.001366 -0.000000 -0.000000 -0.000000 -0.000000
  2O   2dyz       0.000000  0.000000 -0.000000 -0.029020  0.000002 -0.000000
  2O   2dx2y2     0.000000 -0.000000  0.023794 -0.000001 -0.014510 -0.036468
  2O   2dxy       0.001366 -0.000226 -0.000000 -0.000000  0.000000 -0.000000
  2O   1f0       -0.000023 -0.000140 -0.000000  0.000000 -0.000000 -0.000000
  2O   1f+1       0.000000 -0.000000 -0.000360 -0.000000 -0.001832  0.001445
  2O   1f-1      -0.000057  0.000009 -0.000000  0.000000  0.000000 -0.000000
  2O   1f+2       0.000030  0.000180  0.000000 -0.000000 -0.000000 -0.000000
  2O   1f-2       0.000000  0.000000 -0.000000 -0.002318  0.000000 -0.000000
  2O   1f+3       0.000000 -0.000000 -0.000465  0.000000  0.001419  0.001865
  2O   1f-3      -0.000221  0.000036 -0.000000  0.000000 -0.000000  0.000000
  2O   6s         0.000005 -0.000002  8.878690  0.000001  0.000001 -8.034230
  2O   4pz        0.284927  1.724641  0.000000 -0.000001  0.000000 -0.000000
  2O   4px        0.000001  0.000000  0.441311  0.000000  0.000000 -2.566439
  2O   4py        1.724641 -0.284927  0.000003  0.000000  0.000001 -0.000005
  2O   3dz2       0.000000 -0.000000  0.062823  0.000005  0.064700  0.007193
  2O   3dxz       0.027789  0.168208 -0.000000 -0.000000  0.000000 -0.000000
  2O   3dyz      -0.000000 -0.000001  0.000000  0.074709 -0.000006  0.000000
  2O   3dx2y2     0.000000 -0.000000 -0.108813  0.000003  0.037355 -0.012459
  2O   3dxy       0.168208 -0.027790  0.000002  0.000000  0.000000 -0.000000
                     24        25        26        27        28        29   
                   0.26864   0.29735   0.29735   0.33491   0.34190   0.34190
                   0.00000   0.00000   0.00000   0.00000   0.00000   0.00000
                  --------  --------  --------  --------  --------  --------
  0C   1s        -0.043649  0.000000 -0.000000  0.059317 -0.000000  0.000000
  0C   2s        -0.062704 -0.000000  0.000000  0.135651 -0.000000  0.000000
  0C   3s        -0.252298  0.000006 -0.000002 -0.654120  0.000001 -0.000000
  0C   4s         2.784363 -0.000027  0.000010  3.999767 -0.000004  0.000001
  0C   5s        13.817898 -0.000149  0.000059 -0.638840  0.000004  0.000000
  0C   1pz        0.000000 -0.088542 -0.256666  0.000000  0.000006  0.000019
  0C   1px        0.000004 -0.000000  0.000000 -0.000013  0.000001 -0.000000
  0C   1py       -0.000003 -0.256666  0.088542 -0.000002  0.000019 -0.000006
  0C   2pz        0.000000 -0.107634 -0.312012 -0.000000  0.000017  0.000055
  0C   2px       -0.000026  0.000000 -0.000001  0.000248 -0.000011  0.000004
  0C   2py       -0.000001 -0.312012  0.107634  0.000001  0.000055 -0.000017
  0C   3pz       -0.000002  1.303080  3.777387  0.000000 -0.000087 -0.000289
  0C   3px       -0.000475  0.000001 -0.000003  0.000296 -0.000033  0.000012
  0C   3py        0.000015  3.777387 -1.303080 -0.000006 -0.000289  0.000088
  0C   1dz2       0.017534  0.000000 -0.000000 -0.028481  0.000000 -0.000000
  0C   1dxz      -0.000000 -0.000001 -0.000004 -0.000000 -0.007432 -0.024568
  0C   1dyz      -0.000000 -0.000000 -0.000000  0.000000 -0.000000  0.000000
  0C   1dx2y2    -0.030369 -0.000000 -0.000000  0.049330 -0.000000  0.000000
  0C   1dxy      -0.000000 -0.000004  0.000001 -0.000000 -0.024568  0.007432
  0C   2dz2      -0.266380  0.000005 -0.000002 -0.150379  0.000000 -0.000000
  0C   2dxz       0.000000  0.000006  0.000017  0.000000  0.070094  0.231714
  0C   2dyz      -0.000000  0.000000  0.000000  0.000000  0.000000 -0.000000
  0C   2dx2y2     0.461383 -0.000009  0.000003  0.260463 -0.000000  0.000000
  0C   2dxy      -0.000000  0.000017 -0.000006  0.000000  0.231714 -0.070094
  0C   1f0       -0.000000  0.009590  0.027800  0.000000 -0.000001 -0.000003
  0C   1f+1       0.000001 -0.000000  0.000000 -0.000006  0.000000 -0.000000
  0C   1f-1       0.000000  0.011349 -0.003915 -0.000000 -0.000001  0.000000
  0C   1f+2       0.000000 -0.012381 -0.035889 -0.000000  0.000001  0.000004
  0C   1f-2      -0.000000  0.000000  0.000000  0.000000  0.000000  0.000000
  0C   1f+3       0.000002 -0.000000  0.000000 -0.000008  0.000000 -0.000000
  0C   1f-3       0.000000  0.043955 -0.015163 -0.000000 -0.000005  0.000002
  0C   6s         9.011737 -0.000138  0.000054 -7.239783  0.000013 -0.000001
  0C   3dz2      -0.710587  0.000015 -0.000006  2.126972 -0.000004  0.000000
  0C   3dxz       0.000000  0.000086  0.000248  0.000001  0.998831  3.301870
  0C   3dyz      -0.000000 -0.000000 -0.000001 -0.000000  0.000000 -0.000000
  0C   3dx2y2     1.230773 -0.000024  0.000009 -3.684024  0.000006 -0.000000
  0C   3dxy      -0.000000  0.000248 -0.000086  0.000006  3.301870 -0.998831
  1O   1s         0.003267  0.000000 -0.000000 -0.016921  0.000000 -0.000000
  1O   2s         0.003204  0.000000 -0.000000 -0.049884  0.000000 -0.000000
  1O   3s         0.027832 -0.000000  0.000000  0.160499 -0.000000  0.000000
  1O   4s        -0.176916  0.000004 -0.000001 -0.209533  0.000000 -0.000000
  1O   5s        -2.480559  0.000031 -0.000010  1.202473  0.000011 -0.000006
  1O   1pz        0.000000 -0.018305 -0.053062 -0.000000 -0.039705 -0.131255
  1O   1px        0.243270 -0.000001  0.000000 -0.090552  0.000000 -0.000000
  1O   1py       -0.000002 -0.053062  0.018305 -0.000000 -0.131255  0.039705
  1O   2pz       -0.000000  0.023108  0.066985 -0.000000 -0.014688 -0.048555
  1O   2px        0.376556 -0.000004  0.000001 -0.006215 -0.000001  0.000001
  1O   2py       -0.000001  0.066985 -0.023108  0.000000 -0.048555  0.014688
  1O   3pz        0.000000 -0.254482 -0.737696 -0.000001 -0.410698 -1.357659
  1O   3px        1.860508 -0.000016  0.000006  1.469826 -0.000014  0.000005
  1O   3py        0.000001 -0.737696  0.254482 -0.000002 -1.357659  0.410698
  1O   1dz2      -0.001272  0.000000 -0.000000  0.002592  0.000000 -0.000000
  1O   1dxz      -0.000000  0.003076  0.008917  0.000000  0.000297  0.000983
  1O   1dyz       0.000000  0.000000  0.000000 -0.000000 -0.000000 -0.000000
  1O   1dx2y2     0.002204 -0.000000  0.000000 -0.004489  0.000000 -0.000000
  1O   1dxy       0.000000  0.008917 -0.003076  0.000000  0.000983 -0.000297
  1O   2dz2       0.028118 -0.000000  0.000000  0.040152 -0.000000  0.000000
  1O   2dxz       0.000000 -0.008738 -0.025330  0.000000  0.012472  0.041230
  1O   2dyz       0.000000 -0.000000 -0.000000  0.000000  0.000000  0.000000
  1O   2dx2y2    -0.048701  0.000001 -0.000000 -0.069545  0.000001 -0.000000
  1O   2dxy      -0.000000 -0.025330  0.008738  0.000000  0.041230 -0.012472
  1O   1f0        0.000000 -0.000630 -0.001826  0.000000  0.000950  0.003139
  1O   1f+1      -0.001159  0.000000  0.000000 -0.003810  0.000000 -0.000000
  1O   1f-1      -0.000000 -0.000745  0.000257  0.000000  0.001282 -0.000388
  1O   1f+2       0.000000  0.000813  0.002357  0.000000 -0.001226 -0.004053
  1O   1f-2      -0.000000  0.000000  0.000000  0.000000 -0.000000 -0.000000
  1O   1f+3      -0.001496  0.000000 -0.000000 -0.004919  0.000000 -0.000000
  1O   1f-3       0.000000 -0.002886  0.000996  0.000000  0.004963 -0.001501
  1O   6s       -10.521544  0.000131 -0.000050  3.650077  0.000046 -0.000018
  1O   4pz        0.000000 -0.352442 -1.021664 -0.000001 -0.602689 -1.992330
  1O   4px        2.005750 -0.000021  0.000008  1.263105 -0.000020  0.000006
  1O   4py       -0.000006 -1.021664  0.352442 -0.000001 -1.992330  0.602689
  1O   3dz2       0.140956 -0.000001  0.000000  0.512845 -0.000003  0.000001
  1O   3dxz      -0.000000  0.197288  0.571901  0.000000  0.153197  0.506430
  1O   3dyz      -0.000000  0.000000  0.000001  0.000000 -0.000000 -0.000000
  1O   3dx2y2    -0.244143  0.000001 -0.000000 -0.888273  0.000006 -0.000002
  1O   3dxy       0.000001  0.571901 -0.197288 -0.000001  0.506430 -0.153197
  2O   1s         0.003266  0.000000 -0.000000 -0.016919 -0.000000  0.000000
  2O   2s         0.003205  0.000000  0.000000 -0.049873  0.000000  0.000000
  2O   3s         0.027823 -0.000000  0.000000  0.160466 -0.000000  0.000000
  2O   4s        -0.176897  0.000004 -0.000001 -0.209565  0.000000 -0.000000
  2O   5s        -2.480807  0.000033 -0.000015  1.203157 -0.000018  0.000005
  2O   1pz        0.000000 -0.018297 -0.053041  0.000000  0.039705  0.131255
  2O   1px       -0.243261  0.000001 -0.000000  0.090553 -0.000000  0.000000
  2O   1py       -0.000002 -0.053041  0.018297  0.000000  0.131255 -0.039705
  2O   2pz       -0.000000  0.023110  0.066992  0.000000  0.014679  0.048525
  2O   2px       -0.376550  0.000004 -0.000002  0.006297 -0.000002  0.000001
  2O   2py       -0.000001  0.066992 -0.023110  0.000000  0.048525 -0.014679
  2O   3pz        0.000001 -0.254415 -0.737500  0.000001  0.410746  1.357816
  2O   3px       -1.860693  0.000017 -0.000008 -1.469359 -0.000011  0.000004
  2O   3py        0.000001 -0.737500  0.254415  0.000003  1.357816 -0.410746
  2O   1dz2      -0.001273  0.000000 -0.000000  0.002590 -0.000000  0.000000
  2O   1dxz       0.000000 -0.003076 -0.008916 -0.000000  0.000297  0.000983
  2O   1dyz       0.000000  0.000000  0.000000 -0.000000  0.000000  0.000000
[...]
SOC integrals                             ...  NO
EPR diamagnetic integrals (GIAO)          ...  NO
EPR gauge integrals                       ...  NO
Field gradient integrals                  ...  NO (   0 nuclei)
Spin-dipole/Fermi contact integrals       ...  NO (   0 nuclei)
Contact density integrals                 ...  NO (   0 nuclei)
Nucleus-orbit integrals                   ...  NO (   0 nuclei)
Geometric perturbations                   ... YES (   3 nuclei)

Choice of electric origin   ... Center of mass
Position of electric origin ... (  0.0000,  0.0000,  0.0000) 
Choice of magnetic origin   ... GIAO
Position of magnetic origin ... (  0.0000,  0.0000,  0.0000) 

Calculating integrals                     ... Geometrical perturbation right hand sides

-----------------------
GEOMETRIC PERTURBATIONS (3 nuclei)
-----------------------

MaxCore                            ...   2000 MB
Number of batches                  ...      1

BATCH   0: Atoms    0 -    2 (  9 perturbations)
   => H(core) and overlap derivative integrals     ... done (     0.0 sec)
   => Making and storing internal U-coefficients   ... done (     0.0 sec)
   => RI-J derivative integrals                    ... done (     0.3 sec)
   => RI-J response operators                      ... done (     0.0 sec)
   => Chain of spheres derivative integrals        ... done (     2.3 sec)
   => Chain of spheres response operator           ... done (     1.0 sec)
   => XC derivative integrals                      ... done (     4.2 sec)
   => XC response operators                        ... done (     0.8 sec)
   => Completing and storing right hand sides      ... done (     0.0 sec)
   => Total time for right hand sides =   8.7 sec

  geometrical perturbations done (  8.7 sec)

Property integrals calculated in   8.7 sec

Maximum memory used throughout the entire PROPINT-calculation: 16.8 MB
------------------------------------------------------------------------------
                            ORCA SCF RESPONSE CALCULATION
------------------------------------------------------------------------------

GBWName                                 ... co2_opt.gbw
Number of atoms                         ...      3
Number of basis functions               ...    117
Max core memory                         ...   2000 MB

Electric field perturbation             ...  NO
Quadrupolar field perturbation          ...  NO
Magnetic field perturbation (no GIAO)   ...  NO
Magnetic field perturbation (with GIAO) ...  NO
Linear momentum (velocity) perturbation ...  NO
Spin-orbit coupling perturbation        ...  NO
Choice of electric origin               ... Center of mass
Position of electric origin             ...     0.000000     0.000000     0.000000
Choice of magnetic origin               ... GIAO
Position of magnetic origin             ...     0.000000     0.000000     0.000000
Nuclear geometric perturbations         ... YES (   9 perturbations)
Nucleus-orbit perturbations             ...  NO (   0 perturbations)
Spin-dipole/Fermi contact perturbations ...  NO (   0 perturbations)

Total number of real perturbations      ...      9
Total number of imaginary perturbations ...      0
Total number of triplet perturbations   ...      0
Total number of SOC perturbations       ...      0


                                **********************
                                * REAL PERTURBATIONS *
                                **********************



-------------------
SHARK CP-SCF DRIVER
-------------------

Dimension of the orbital basis          ...    117
Dimension of the CPSCF-problem          ...   1166
Number of operators                     ...      1
Max. number of iterations               ...    128
Convergence Tolerance                   ... 1.0e-04
Number of perturbations                 ...      9
Perturbation type                       ... REAL

----------------------------
POPLE LINEAR EQUATION SOLVER
----------------------------

  ITERATION   0:   ||err||_max =   5.0798e-01 (   0.4 sec   0/  9 done)
  ITERATION   1:   ||err||_max =   6.1518e-02 (   0.4 sec   0/  9 done)
  ITERATION   2:   ||err||_max =   9.3454e-03 (   0.4 sec   0/  9 done)
  ITERATION   3:   ||err||_max =   2.3257e-03 (   0.4 sec   6/  9 done)
  ITERATION   4:   ||err||_max =   1.0592e-03 (   0.3 sec   7/  9 done)
  ITERATION   5:   ||err||_max =   1.2775e-04 (   0.2 sec   7/  9 done)
  ITERATION   6:   ||err||_max =   1.3074e-05 (   0.2 sec   9/  9 done)

CP-SCF equations solved in   2.5 sec
Response densities calculated in   0.0 sec

Maximum memory used throughout the entire SCFRESP-calculation: 15.8 MB

------------------------------------------------------------------------------
                              ORCA PROPERTY CALCULATIONS
------------------------------------------------------------------------------

GBWName                                 ... co2_opt.gbw
Number of atoms                         ...      3
Number of basis functions               ...    117
Max core memory                         ...   2000 MB

Electric properties:
Dipole moment                           ...  NO
Quadrupole moment                       ...  NO
Static polarizability (Dipole/Dipole)   ...  NO
Static polarizability (Dipole/Quad.)    ...  NO
Static polarizability (Quad./Quad.)     ...  NO
Static polarizability (Velocity)        ...  NO

Atomic electric properties:
Dipole moment                           ...  NO
Quadrupole moment                       ...  NO
Static polarizability                   ...  NO

Choice of electric origin               ... Center of mass
Position of electric origin             ...     0.000000     0.000000     0.000000

General magnetic properties:
Magnetizability                         ...  NO

EPR properties:
g-Tensor (aka g-matrix)                 ...  NO
Zero-Field splitting spin-orbit         ...  NO
Zero-field splitting spin-spin          ...  NO
Hyperfine couplings                     ...  NO (   0 nuclei)
Quadrupole couplings                    ...  NO (   0 nuclei)
Contact density                         ...  NO (   0 nuclei)

NMR properties:
Chemical shifts                         ...  NO (   0 nuclei)
Spin-rotation constants                 ...  NO (   0 nuclei)
Spin-spin couplings                     ...  NO (   0 nuclei,    0 pairs)

Choice of magnetic origin               ... GIAO
Position of magnetic origin             ...     0.000000     0.000000     0.000000

Properties with geometric perturbations:
SCF Hessian                             ... YES
IR spectrum                             ... YES
VCD spectrum                            ...  NO
X-ray spectroscopy properties:
SCF XES/XAS/RIXS spectra                ...  NO


-----------
SCF HESSIAN
-----------

Occupied/Occupied contributions to the Hessian:
   => Occupied/Occupied contributions              ... done (  0.0 sec)
Perturbed density contributions to the Hessian:
   => Perturbed density contributions              ... done (  0.0 sec)
Explicit contributions to the Hessian:
   => Nuclear repulsion Hessian                    ... done (  0.0 sec)
   => HCore and overlap Hessian                    ... done (  0.2 sec)
   => RI-J Hessian                                 ... done (  0.9 sec)
   => COSX Hessian                                 ... done ( 70.9 sec)
   => XC-Hessian                                   ... done (  1.9 sec)
   => Explicit contributions done
Dipole derivatives                                 ... done (  0.0 sec)
Mass weighting the Hessian           ... done
Calculating normal modes             ... done
Scaling frequencies                  ... done

-----------------------
VIBRATIONAL FREQUENCIES
-----------------------

Scaling factor for frequencies =  1.000000000  (already applied!)

     0:       0.00 cm**-1
     1:       0.00 cm**-1
     2:       0.00 cm**-1
     3:       0.00 cm**-1
     4:       0.00 cm**-1
     5:     762.05 cm**-1
     6:     762.05 cm**-1
     7:    1186.94 cm**-1
     8:    2050.98 cm**-1


------------
NORMAL MODES
------------

These modes are the Cartesian displacements weighted by the diagonal matrix
M(i,i)=1/sqrt(m[i]) where m[i] is the mass of the displaced atom
Thus, these vectors are normalized but *not* orthogonal

                  0          1          2          3          4          5    
      0       0.000000   0.000000   0.000000   0.000000   0.000000  -0.000000
      1       0.000000   0.000000   0.000000   0.000000   0.000000  -0.859085
      2       0.000000   0.000000   0.000000   0.000000   0.000000   0.205245
      3       0.000000   0.000000   0.000000   0.000000   0.000000   0.000000
      4       0.000000   0.000000   0.000000   0.000000   0.000000   0.322472
      5       0.000000   0.000000   0.000000   0.000000   0.000000  -0.077042
      6       0.000000   0.000000   0.000000   0.000000   0.000000  -0.000000
      7       0.000000   0.000000   0.000000   0.000000   0.000000   0.322472
      8       0.000000   0.000000   0.000000   0.000000   0.000000  -0.077042
                  6          7          8    
      0      -0.000000  -0.000002   0.883262
      1      -0.205245   0.000001  -0.000000
      2      -0.859085  -0.000000  -0.000000
      3       0.000000   0.707108  -0.331546
      4       0.077042  -0.000000   0.000000
      5       0.322472   0.000000   0.000000
      6       0.000000  -0.707106  -0.331549
      7       0.077042  -0.000000   0.000000
      8       0.322472   0.000000   0.000000


-----------
IR SPECTRUM
-----------

 Mode   freq       eps      Int      T**2         TX        TY        TZ
       cm**-1   L/(mol*cm) km/mol    a.u.
----------------------------------------------------------------------------
  5:    762.05   0.005394   27.26  0.002209  ( 0.000001 -0.045711  0.010921)
  6:    762.05   0.005394   27.26  0.002209  ( 0.000001 -0.010921 -0.045711)
  7:   1186.94   0.000000    0.00  0.000000  ( 0.000000  0.000000 -0.000000)
  8:   2050.98   0.120635  609.64  0.018355  ( 0.135481 -0.000000 -0.000000)

* The epsilon (eps) is given for a Dirac delta lineshape.
** The dipole moment derivative (T) already includes vibrational overlap.

The first frequency considered to be a vibration is 5
The total number of vibrations considered is 4


--------------------------
THERMOCHEMISTRY AT 298.15K
--------------------------

Temperature         ...   298.15 K
Pressure            ...     1.00 atm
Total Mass          ...    44.01 AMU
Quasi RRHO          ...     True
Cut-Off Frequency   ...     1.00 cm^-1
The molecule is recognized as being linear

Throughout the following assumptions are being made:
  (1) The electronic state is orbitally nondegenerate
  (2) There are no thermally accessible electronically excited states
  (3) Hindered rotations indicated by low frequency modes are not
      treated as such but are treated as vibrations and this may
      cause some error
  (4) All equations used are the standard statistical mechanics
      equations for an ideal gas
  (5) All vibrations are strictly harmonic

freq.     762.05  E(vib)   ...       0.06 
freq.     762.05  E(vib)   ...       0.06 
freq.    1186.94  E(vib)   ...       0.01 
freq.    2050.98  E(vib)   ...       0.00 

------------
INNER ENERGY
------------

The inner energy is: U= E(el) + E(ZPE) + E(vib) + E(rot) + E(trans)
    E(el)   - is the total energy from the electronic structure calculation
              = E(kin-el) + E(nuc-el) + E(el-el) + E(nuc-nuc)
    E(ZPE)  - the the zero temperature vibrational energy from the frequency calculation
    E(vib)  - the the finite temperature correction to E(ZPE) due to population
              of excited vibrational states
    E(rot)  - is the rotational thermal energy
    E(trans)- is the translational thermal energy

Summary of contributions to the inner energy U:
Electronic energy                ...   -188.58229236 Eh
Zero point energy                ...      0.01084866 Eh       6.81 kcal/mol
Thermal vibrational correction   ...      0.00019832 Eh       0.12 kcal/mol
Thermal rotational correction    ...      0.00094418 Eh       0.59 kcal/mol
Thermal translational correction ...      0.00141627 Eh       0.89 kcal/mol
-----------------------------------------------------------------------
Total thermal energy                   -188.56888493 Eh


Summary of corrections to the electronic energy:
(perhaps to be used in another calculation)
Total thermal correction                  0.00255877 Eh       1.61 kcal/mol
Non-thermal (ZPE) correction              0.01084866 Eh       6.81 kcal/mol
-----------------------------------------------------------------------
Total correction                          0.01340743 Eh       8.41 kcal/mol


--------
ENTHALPY
--------

The enthalpy is H = U + kB*T
                kB is Boltzmann's constant
Total thermal energy              ...   -188.56888493 Eh 
Thermal Enthalpy correction       ...      0.00094421 Eh       0.59 kcal/mol
-----------------------------------------------------------------------
Total Enthalpy                    ...   -188.56794072 Eh


Note: Rotational entropy computed according to Herzberg 
Infrared and Raman Spectra, Chapter V,1, Van Nostrand Reinhold, 1945 
Point Group:  D(inf)h, Symmetry Number:   1  
Rotational constants in cm-1:     0.000000     0.365857     0.365857 

Vibrational entropy computed according to the QRRHO of S. Grimme
Chem.Eur.J. 2012 18 9955 using a reference frequency of 100.0 cm-1


-------
ENTROPY
-------

The entropy contributions are T*S = T*(S(el)+S(vib)+S(rot)+S(trans))
     S(el)   - electronic entropy
     S(vib)  - vibrational entropy
     S(rot)  - rotational entropy
     S(trans)- translational entropy
The entropies will be listed as multiplied by the temperature to get
units of energy

Electronic entropy                ...      0.00000000 Eh      0.00 kcal/mol
Vibrational entropy               ...      0.00024998 Eh      0.16 kcal/mol
Rotational entropy                ...      0.00692965 Eh      4.35 kcal/mol
Translational entropy             ...      0.01770880 Eh     11.11 kcal/mol
-----------------------------------------------------------------------
Final entropy term                ...      0.02488843 Eh     15.62 kcal/mol


-------------------
GIBBS FREE ENERGY
-------------------

The Gibbs free energy is G = H - T*S

Total enthalpy                    ...   -188.56794072 Eh 
Total entropy correction          ...     -0.02488843 Eh    -15.62 kcal/mol
-----------------------------------------------------------------------
Final Gibbs free energy         ...   -188.59282915 Eh

For completeness - the Gibbs free energy minus the electronic energy
G-E(el)                           ...     -0.01053679 Eh     -6.61 kcal/mol


Maximum memory used throughout the entire PROP-calculation: 21.8 MB

--------------------------------
SUGGESTED CITATIONS FOR THIS RUN
--------------------------------

Below you find a list of papers that are relevant to this ORCA run
We neither can nor want to force you to cite these papers, but we appreciate if you do
You receive ORCA, which is the product of decades of hard work by many enthusiastic individuals, for free
The only thing we kindly ask in return is that you cite our papers,
We deeply appreciate it, if you show your appreciation for ORCA by not just citing the generic ORCA reference.

Please note that relegating all ORCA citations to the supporting information does *not* help us.
SI sections are not indexed - citations you put there will not count into any citation statistics
But we need these citations in order to attract the funding resources that allow us to do what we are doing

Therefore, if you are a happy ORCA user, please consider citing a few of the papers listed below in the main body of your paper

In addition to the list printed below, the program has created the file co2_opt.bibtex that contains the list in bibtex format
You can import this file easily into all common literature databanks and citation aid programs


List of essential papers. We consider these as the minimum necessary citations

  1. Neese,F.
     Software update: the ORCA program system, version 5.0
     WIRES Comput. Molec. Sci., 2022 12(1)e1606
     doi.org/10.1002/wcms.1606

List of papers to cite with high priority. The work reported in these papers was absolutely
necessary for this run to complete.
Our perspective: the developers of density functionals and basis sets usually get cited in chemistry papers
Good! But without the algorithms to do something with them, the functionals or basis sets would not do anything.
Hence, in our opinion, the algorithm design and method developments papers are equally worthy of getting cited

  1. Neese,F.
     An improvement of the resolution of the identity approximation for the formation of the Coulomb matrix
     J. Comp. Chem., 2003 24(14)1740-1747
     doi.org/10.1002/jcc.10318
  2. Neese,F.; Wennmohs,F.; Hansen,A.; Becker,U.
     Efficient, approximate and parallel Hartree-Fock and hybrid DFT calculations. A 'chain-of-spheres' algorithm for the Hartree-Fock exchange
     Chem. Phys., 2009 356(1-3)98-109
     doi.org/10.1016/j.chemphys.2008.10.036
  3. Bykov,D.; Petrenko,T.; Izsak,R.; Kossmann,S.; Becker,U.; Valeev,E.; Neese,F.
     Efficient implementation of the analytic second derivatives of Hartree-Fock and hybrid DFT energies: a detailed analysis of different approximations
     Molec. Phys., 2015 113 1961-1977
     doi.org/10.1080/00268976.2015.1025114
  4. Helmich-Paris,B.; de Souza,B.; Neese,F.; Izsák,R.
     An improved chain of spheres for exchange algorithm
     J. Chem. Phys., 2021 155 104109
     doi.org/doi: 10.1063/5.0058766.
  5. Neese,F.
     The SHARK Integral Generation and Digestion System
     J. Comp. Chem., 2022  1-16
     doi.org/10.1002/jcc.26942

List of suggested additional citations. These are papers that are important in the 'surrounding' of 
of this run, or papers that preceded the highly important papers. If you like your results we are grateful for a citation.

  1. Izsak,R.; Neese,F.
     An overlap fitted chain of spheres exchange method
     J. Chem. Phys., 2011 135 144105
     doi.org/10.1063/1.3646921
  2. Izsak,R.; Hansen,A.; Neese,F.
     The resolution of identity and chain of spheres approximations for the LPNO-CCSD singles Fock term
     Molec. Phys., 2012 110 2413-2417
     doi.org/10.1080/00268976.2012.687466
  3. Neese,F.
     The ORCA program system
     WIRES Comput. Molec. Sci., 2012 2(1)73-78
     doi.org/10.1002/wcms.81
  4. Izsak,R.; Neese,F.; Klopper,W.
     Robust fitting techniques in the chain of spheres approximation to the Fock exchange: The role of the complementary space
     J. Chem. Phys., 2013 139 
     doi.org/10.1063/1.4819264
  5. Neese,F.
     Software update: the ORCA program system, version 4.0
     WIRES Comput. Molec. Sci., 2018 8(1)1-6
     doi.org/10.1002/wcms.1327
  6. Neese,F.; Wennmohs,F.; Becker,U.; Riplinger,C.
     The ORCA quantum chemistry program package
     J. Chem. Phys., 2020 152 Art. No. L224108
     doi.org/10.1063/5.0004608

List of optional additional citations

  1. Neese,F.
     Approximate second-order SCF convergence for spin unrestricted wavefunctions
     Chem. Phys. Lett., 2000 325(1-3)93-98
     doi.org/10.1016/s0009-2614(00)00662-x

Timings for individual modules:

Sum of individual times          ...       97.700 sec (=   1.628 min)
Startup calculation              ...        0.281 sec (=   0.005 min)   0.3 %
SCF iterations                   ...        6.742 sec (=   0.112 min)   6.9 %
Property integrals               ...        8.800 sec (=   0.147 min)   9.0 %
SCF Response                     ...        2.540 sec (=   0.042 min)   2.6 %
Property calculations            ...       73.798 sec (=   1.230 min)  75.5 %
SCF Gradient evaluation          ...        5.539 sec (=   0.092 min)   5.7 %
                             ****ORCA TERMINATED NORMALLY****
TOTAL RUN TIME: 0 days 0 hours 3 minutes 2 seconds 899 msec
