
                                 *****************
                                 * O   R   C   A *
                                 *****************

                                            #,                                       
                                            ###                                      
                                            ####                                     
                                            #####                                    
                                            ######                                   
                                           ########,                                 
                                     ,,################,,,,,                         
                               ,,#################################,,                 
                          ,,##########################################,,             
                       ,#########################################, ''#####,          
                    ,#############################################,,   '####,        
                  ,##################################################,,,,####,       
                ,###########''''           ''''###############################       
              ,#####''   ,,,,##########,,,,          '''####'''          '####       
            ,##' ,,,,###########################,,,                        '##       
           ' ,,###''''                  '''############,,,                           
         ,,##''                                '''############,,,,        ,,,,,,###''
      ,#''                                            '''#######################'''  
     '                                                          ''''####''''         
             ,#######,   #######,   ,#######,      ##                                
            ,#'     '#,  ##    ##  ,#'     '#,    #''#        ,####,   ,####,        
            ##       ##  ##   ,#'  ##            #'  '#       #'       #'  '#        
            ##       ##  #######   ##           ,######,      #####,   #    #        
            '#,     ,#'  ##    ##  '#,     ,#' ,#      #,     #,   #   #,  ,#        
             '#######'   ##     ##  '#######'  #'      '#     '####' # '####'        



                #########################################################
                #                        -***-                          #
                #          Department of theory and spectroscopy        #
                #                                                       #
                #                      Frank Neese                      #
                #                                                       #
                #     Directorship, Architecture, Infrastructure        #
                #                    SHARK, DRIVERS                     #
                #        Core code/Algorithms in most modules           #
                #                                                       #
                #        Max Planck Institute fuer Kohlenforschung      #
                #                Kaiser Wilhelm Platz 1                 #
                #                 D-45470 Muelheim/Ruhr                 #
                #                      Germany                          #
                #                                                       #
                #                  All rights reserved                  #
                #                        -***-                          #
                #########################################################


                         Program Version 6.0.1  -  RELEASE   -


 With contributions from (in alphabetic order):
[Max-Planck-Institut fuer Kohlenforschung]                               
  Daniel Aravena         : Magnetic Suceptibility                        
  Michael Atanasov       : Ab Initio Ligand Field Theory (pilot matlab implementation)
  Alexander A. Auer      : GIAO ZORA, VPT2 properties, NMR spectrum      
  Ute Becker             : All parallelization in ORCA, NUMFREQ, NUMCALC 
  Giovanni Bistoni       : ED, misc. LED, open-shell LED, HFLD           
  Martin Brehm           : Molecular dynamics                            
  Dmytro Bykov           : pre 5.0 version of the SCF Hessian            
  Marcos Casanova-Páez   : Triplet and SCS-CIS(D). UHF-(DLPNO)-IP/EA/STEOM-CCSD. UHF-CVS-IP/STEOM-CCSD   
  Vijay G. Chilkuri      : MRCI spin determinant printing, contributions to CSF-ICE 
  Pauline Colinet        : FMM embedding                                 
  Dipayan Datta          : RHF DLPNO-CCSD density                        
  Achintya Kumar Dutta   : EOM-CC, STEOM-CC                              
  Nicolas Foglia         : Exact transition moments, OPA infrastructure, MCD improvements    
  Dmitry Ganyushin       : Spin-Orbit,Spin-Spin,Magnetic field MRCI      
  Miquel Garcia-Rates    : C-PCM and meta-GGA Hessian, CCSD/C-PCM, Gaussian charge scheme 
  Tiago L. C. Gouveia    : GS-ROHF, GS-ROCIS                             
  Yang Guo               : DLPNO-NEVPT2, F12-NEVPT2, CIM, IAO-localization        
  Andreas Hansen         : Spin unrestricted coupled pair/coupled cluster methods 
  Ingolf Harden          : AUTO-CI MPn and infrastructure                
  Benjamin Helmich-Paris : MC-RPA, TRAH-(SCF,CASSCF), AVAS, COSX integrals, SCF dyn. polar. 
  Lee Huntington         : MR-EOM, pCC                                   
  Robert Izsak           : Overlap fitted RIJCOSX, COSX-SCS-MP3, EOM     
  Riya Kayal             : Wick's Theorem for AUTO-CI, AUTO-CI UHF-CCSDT 
  Emily Kempfer          : AUTO-CI, RHF CISDT and CCSDT                  
  Christian Kollmar      : KDIIS, OOCD, Brueckner-CCSD(T), CCSD density, CASPT2, CASPT2-K, improved NEVPT2 
  Axel Koslowski         : Symmetry handling                             
  Simone Kossmann        : meta-GGA functionals, TD-DFT gradient, OOMP2, (MP2 Hessian; deprecated post 5.0) 
  Lucas Lang             : DCDCAS                                        
  Marvin Lechner         : AUTO-CI (C++ implementation), FIC-MRCC        
  Spencer Leger          : CASSCF response                               
  Dagmar Lenk            : GEPOL surface, SMD, ORCA-2-JSON               
  Dimitrios Liakos       : Extrapolation schemes; Compound Job, initial MDCI parallelization 
  Dimitrios Manganas     : Further ROCIS development; embedding schemes. LFT, Crystal Embedding 
  Dimitrios Pantazis     : SARC Basis sets                               
  Anastasios Papadopoulos: AUTO-CI, single reference methods and gradients 
  Taras Petrenko         : pre 6.0 DFT Hessian and TD-DFT gradient, (ASA, deprecated), ECA, 1-Electron XAS/XES, NRVS 
  Peter Pinski           : DLPNO-MP2, DLPNO-MP2 Gradient                 
  Christoph Reimann      : Effective Core Potentials                     
  Marius Retegan         : Local ZFS, SOC                                
  Christoph Riplinger    : Optimizer, TS searches, QM/MM, DLPNO-CCSD(T), (RO)-DLPNO pert. Triples 
  Michael Roemelt        : Original ROCIS implementation                 
  Masaaki Saitow         : Open-shell DLPNO-CCSD energy and density      
  Barbara Sandhoefer     : DKH picture change effects                    
  Kantharuban Sivalingam : CASSCF convergence/infrastructure, NEVPT2 and variants, FIC-MRCI 
  Bernardo de Souza      : ESD, SOC TD-DFT                               
  Georgi L. Stoychev     : AutoAux, RI-MP2 NMR, DLPNO-MP2 response, X2C  
  Van Anh Tran           : RI-MP2 g-tensors                              
  Willem Van den Heuvel  : Paramagnetic NMR                              
  Zikuan Wang            : NOTCH, Electric field optimization            
  Frank Wennmohs         : Technical directorship and infrastructure     
  Hang Xu                : AUTO-CI-Response properties                   
                                                                         
[FACCTs GmbH]                                                            
  Markus Bursch, Miquel Garcia-Rates, Christoph Riplinger, Bernardo de Souza, Georgi L. Stoychev 
                                                                 
  APM, Basis sets (HGBS, AHGBS, def-TZVP (Ac-Lr), def2-XVPD (La-Lu)), CI-OPT, improved COSX, DLPNO-Multilevel,           
  DOCKER, DRACO, updates on ESD, GOAT, IRC, LR-CPCM, MBIS, meta-GGA TD-DFT gradient, ML-optimized integration grids, 
  MM, NACMEs, nearIR, NEB, NEB-TS, NL-DFT gradient (VV10), 2- and 3-layer-ONIOM, interface openCOSMO-RS, QMMM,   
  Crystal-QMMM, SF, symmetry and pop. for TD-DFT, r2SCAN hybrids, SOLVATOR                                   
                                                                         
[Other institutions]                                                     
  V. Asgeirsson          : NEB                                           
  Christoph Bannwarth    : sTDA-DFT, sTD-DFT, PBEh-3c, B97-3c, D3        
  Sebastian Ehlert       : rSCAN, r2SCAN, r2SCAN-3c, D4, dhf basis sets  
  Marvin Friede          : D4 for Fr, Ra, Ac-Lr                          
  Lars Goerigk           : TD-DFT with DH, B97 family of functionals     
  Stefan Grimme          : VdW corrections, initial TS optimization, DFT functionals, gCP, sTDA/sTD-DF 
  Waldemar Hujo          : DFT-NL                                        
  H. Jonsson             : NEB                                           
  Holger Kruse           : gCP                                           
  Marcel Mueller         : wB97X-3c, vDZP basis set                      
  Hagen Neugebauer       : wr2SCAN                                       
  Tobias Risthaus        : range-separated hybrid DFT                    
  Lukas Wittmann         : regularized MP2, r2SCAN double-hybrids, wr2SCAN        
                                                                         
We gratefully acknowledge several colleagues who have allowed us to      
interface, adapt or use parts of their codes:                            
  Ed Valeev, F. Pavosevic, A. Kumar             : LibInt (2-el integral package), F12 methods 
  Garnet Chan, S. Sharma, J. Yang, R. Olivares  : DMRG                   
  Ulf Ekstrom                                   : XCFun DFT Library      
  Mihaly Kallay                                 : mrcc  (arbitrary order and MRCC methods)
  Frank Weinhold                                : gennbo (NPA and NBO analysis)           
  Simon Mueller                                 : openCOSMO-RS                            
  Christopher J. Cramer and Donald G. Truhlar   : smd solvation model                     
  S Lehtola, MJT Oliveira, MAL Marques          : LibXC Library                           
  Liviu Ungur et al                             : ANISO software                          


 Your calculation uses the libint2 library for the computation of 2-el integrals
 For citations please refer to: http://libint.valeyev.net

 Your ORCA version has been built with support for libXC version: 6.2.2
 For citations please refer to: https://libxc.gitlab.io

 This ORCA versions uses:
   CBLAS   interface :  Fast vector & matrix operations
   LAPACKE interface :  Fast linear algebra routines
   SCALAPACK package :  Parallel linear algebra routines
   Shared memory     :  Shared parallel matrices
   BLAS/LAPACK       :  OpenBLAS 0.3.27  USE64BITINT DYNAMIC_ARCH NO_AFFINITY SkylakeX SINGLE_THREADED
        Core in use  :  SkylakeX
   Copyright (c) 2011-2014, The OpenBLAS Project


NOTE: MaxCore=2000 MB was set to SCF,MP2,MDCI,CIPSI,MRCI and CIS
      => If you want to overwrite this, your respective input block should be placed after the MaxCore statement
Warning: RI is on but no J-basis has been assigned. Assigning Def2/J (nothing to worry about!)
================================================================================

----- Orbital basis set information -----
Your calculation utilizes the basis: def2-TZVPD
   F. Weigend and R. Ahlrichs, Phys. Chem. Chem. Phys. 7, 3297 (2005).
   D. Rappoport and F. Furche, J. Chem. Phys. 133, 134105 (2010)
   D. Rappoport, J. Chem. Phys. 155, 124102 (2021).

----- AuxJ basis set information -----
Your calculation utilizes the auxiliary basis: def2/J
   F. Weigend, Phys. Chem. Chem. Phys. 8, 1057 (2006).

================================================================================
                                        WARNINGS
                       Please study these warnings very carefully!
================================================================================

WARNING: Old DensityContainer found on disk!
         Will remove this file - 
         If you want to keep old densities, please start your calculation with a different basename. 


WARNING: Geometry Optimization
  ===> : Switching off AutoStart
         For restart on a previous wavefunction, please use MOREAD

================================================================================
                                       INPUT FILE
================================================================================
NAME = co2_opt.inp
|  1> ! B3LYP def2-TZVPD Opt NumFreq TightSCF
|  2> %maxcore 2000
|  3> %output
|  4>   PrintLevel 5
|  5> end
|  6> * xyz 0 1
|  7> C    0.000000    0.000000    0.000000
|  8> O    1.200000    0.000000    0.000000
|  9> O   -1.200000    0.000000    0.000000
| 10> *
| 11> %elprop
| 12>    Polar 1
| 13> end
| 14> 
| 15> 
| 16>                          ****END OF INPUT****
================================================================================

                       *****************************
                       * Geometry Optimization Run *
                       *****************************

Geometry optimization settings:
Update method            Update   .... BFGS
Choice of coordinates    CoordSys .... (2022) Redundant Internals
Initial Hessian          InHess   .... Almloef's Model
Max. no of cycles        MaxIter  .... 50

Convergence Tolerances:
Energy Change            TolE     ....  5.0000e-06 Eh
Max. Gradient            TolMAXG  ....  3.0000e-04 Eh/bohr
RMS Gradient             TolRMSG  ....  1.0000e-04 Eh/bohr
Max. Displacement        TolMAXD  ....  4.0000e-03 bohr
RMS Displacement         TolRMSD  ....  2.0000e-03 bohr
Strict Convergence                .... False

------------------------------------------------------------------------------
                        ORCA OPTIMIZATION COORDINATE SETUP
------------------------------------------------------------------------------

The optimization will be done in redundant internal coordinates (2022)
Making redundant internal coordinates   ...  (2022 redundants) done
Evaluating the initial hessian          ...  (Almloef) done
Evaluating the coordinates              ...  done
Calculating the B-matrix                .... done
Calculating the G-matrix                .... done
Diagonalizing the G-matrix              .... done
The first mode is                       ....    0
The number of degrees of freedom        ....    4

    -----------------------------------------------------------------
                    Redundant Internal Coordinates


    -----------------------------------------------------------------
         Definition                    Initial Value    Approx d2E/dq
    -----------------------------------------------------------------
      1. B(O   1,C   0)                  1.2000         1.124627   
      2. B(O   2,C   0)                  1.2000         1.124627   
      3. L(O   1,C   0,O   2, 2)       180.0000         0.533421   
      4. L(O   1,C   0,O   2, 1)       180.0000         0.533421   
    -----------------------------------------------------------------

Number of atoms                         .... 3
Number of degrees of freedom            .... 4


         *************************************************************
         *                GEOMETRY OPTIMIZATION CYCLE   1            *
         *************************************************************
---------------------------------
CARTESIAN COORDINATES (ANGSTROEM)
---------------------------------
  C      0.000000    0.000000    0.000000
  O      1.200000    0.000000    0.000000
  O     -1.200000    0.000000    0.000000

----------------------------
CARTESIAN COORDINATES (A.U.)
----------------------------
  NO LB      ZA    FRAG     MASS         X           Y           Z
   0 C     6.0000    0    12.011    0.000000    0.000000    0.000000
   1 O     8.0000    0    15.999    2.267671    0.000000    0.000000
   2 O     8.0000    0    15.999   -2.267671    0.000000    0.000000

--------------------------------
INTERNAL COORDINATES (ANGSTROEM)
--------------------------------
 C      0   0   0     0.000000000000     0.00000000     0.00000000
 O      1   0   0     1.200000000000     0.00000000     0.00000000
 O      1   2   0     1.200000000000   180.00000000     0.00000000

---------------------------
INTERNAL COORDINATES (A.U.)
---------------------------
 C      0   0   0     0.000000000000     0.00000000     0.00000000
 O      1   0   0     2.267671360706     0.00000000     0.00000000
 O      1   2   0     2.267671360706   180.00000000     0.00000000

---------------------
BASIS SET INFORMATION
---------------------
There are 2 groups of distinct atoms

 Group   1 Type C   : 12s6p3d1f contracted to 6s3p3d1f pattern {621111/411/111/1}
 Group   2 Type O   : 12s7p3d1f contracted to 6s4p3d1f pattern {621111/4111/111/1}

Atom   0C    basis set group =>   1
Atom   1O    basis set group =>   2
Atom   2O    basis set group =>   2

-------------------------
BASIS SET IN INPUT FORMAT
-------------------------

 # Basis set for element : C 
 NewGTO C 
 S 6 
   1   13575.3496820000      0.0006064549
   2    2035.2333680000      0.0046979088
   3     463.2256235900      0.0243324776
   4     131.2001959800      0.0973999683
   5      42.8530158910      0.3019558425
   6      15.5841857660      0.6623360915
 S 2 
   1       6.2067138508      0.6559530854
   2       2.5764896527      0.3758563329
 S 1 
   1       0.5769633942      1.0000000000
 S 1 
   1       0.2297283136      1.0000000000
 S 1 
   1       0.0951644400      1.0000000000
 P 4 
   1      34.6972322440      0.0113272200
   2       7.9582622826      0.0761696592
   3       2.3780826883      0.3019225220
   4       0.8143320818      0.7278502735
 P 1 
   1       0.2888754725      1.0000000000
 P 1 
   1       0.1005682367      1.0000000000
 D 1 
   1       1.0970000000      1.0000000000
 D 1 
   1       0.3180000000      1.0000000000
 F 1 
   1       0.7610000000      1.0000000000
 S 1 
   1       0.0484754014      1.0000000000
 D 1 
   1       0.0909853364      1.0000000000
  end;

 # Basis set for element : O 
 NewGTO O 
 S 6 
   1   27032.3826310000      0.0005722733
   2    4052.3871392000      0.0044353233
   3     922.3272271000      0.0230201076
   4     261.2407098900      0.0928224906
   5      85.3546413510      0.2937850002
   6      31.0350352450      0.6740160450
 S 2 
   1      12.2608607280      0.6383993702
   2       4.9987076005      0.3953458713
 S 1 
   1       1.1703108158      1.0000000000
 S 1 
   1       0.4647474099      1.0000000000
 S 1 
   1       0.1850453636      1.0000000000
 P 4 
   1      63.2749548010      0.0120183321
   2      14.6270493790      0.0830054217
   3       4.4501223456      0.3199174393
   4       1.5275799647      0.7071554292
 P 1 
   1       0.5293511794      1.0000000000
 P 1 
   1       0.1747842127      1.0000000000
 D 1 
   1       2.3140000000      1.0000000000
 D 1 
   1       0.6450000000      1.0000000000
 F 1 
   1       1.4280000000      1.0000000000
 S 1 
   1       0.0702880263      1.0000000000
 P 1 
   1       0.0511127457      1.0000000000
 D 1 
   1       0.1469647737      1.0000000000
  end;

---------------------------------
AUXILIARY/J BASIS SET INFORMATION
---------------------------------
There are 2 groups of distinct atoms

 Group   1 Type C   : 12s5p4d2f1g contracted to 6s4p3d1f1g pattern {711111/2111/211/2/1}
 Group   2 Type O   : 12s5p4d2f1g contracted to 6s4p3d1f1g pattern {711111/2111/211/2/1}

Atom   0C    basis set group =>   1
Atom   1O    basis set group =>   2
Atom   2O    basis set group =>   2

-------------------------------------
AUXILIARY/J BASIS SET IN INPUT FORMAT
-------------------------------------

 # Auxiliary/J basis set for element : C 
 NewAuxJGTO C 
 S 7 
   1    1861.0916331000      0.0134602335
   2     642.9939764000      0.0299160374
   3     235.1105725000      0.1008649584
   4      90.7028894000      0.2370970548
   5      36.7794552000      0.3924037254
   6      15.6046273000      0.3195862154
   7       6.8907294000      0.0530104441
 S 1 
   1       3.1478850000     -1.0000000000
 S 1 
   1       1.4777287000      1.0000000000
 S 1 
   1       0.7076466000      1.0000000000
 S 1 
   1       0.3430122000      1.0000000000
 S 1 
   1       0.1669453000      1.0000000000
 P 2 
   1      13.5472892000     -0.6769313712
   2       5.4669419000     -0.3779500978
 P 1 
   1       2.1751721000      1.0000000000
 P 1 
   1       0.8582194000      1.0000000000
 P 1 
   1       0.3376720000      1.0000000000
 D 2 
   1       5.9287253000     -0.3533329857
   2       1.9809209000     -0.7456525731
 D 1 
   1       0.8055417000     -1.0000000000
 D 1 
   1       0.3531244000     -1.0000000000
 F 2 
   1       1.6755626000      0.6311076882
   2       0.5997536000      0.4968166032
 G 1 
   1       1.0024600000     -1.0000000000
  end;

 # Auxiliary/J basis set for element : O 
 NewAuxJGTO O 
 S 7 
   1    2876.8216605000      0.0168151159
   2    1004.7443032000      0.0340137548
   3     369.7579954000      0.1194951309
   4     142.9442404000      0.2664627624
   5      57.8366425000      0.4202764046
   6      24.3864983000      0.2765077335
   7      10.6622662000      0.0057008815
 S 1 
   1       4.8070437000     -1.0000000000
 S 1 
   1       2.2210770000      1.0000000000
 S 1 
   1       1.0447795000      1.0000000000
 S 1 
   1       0.4968425000      1.0000000000
 S 1 
   1       0.2371384000      1.0000000000
 P 2 
   1      64.2613382000     -0.2731534179
   2      16.3006076000     -0.8168011598
 P 1 
   1       4.3550542000      1.0000000000
 P 1 
   1       1.2019554000      1.0000000000
 P 1 
   1       0.3354196000      1.0000000000
 D 2 
   1       9.2146611000     -0.4661230638
   2       2.8435251000     -0.6600908911
 D 1 
   1       0.9955759000     -1.0000000000
 D 1 
   1       0.3649441000     -1.0000000000
 F 2 
   1       2.6420115000      0.5931563945
   2       0.7345613000      0.5931563945
 G 1 
   1       1.3931000000     -1.0000000000
  end;

------------------------------------------------------------------------------
                             ORCA STARTUP CALCULATIONS
                           -- RI-GTO INTEGRALS CHOSEN --
------------------------------------------------------------------------------
------------------------------------------------------------------------------
                   ___                                                        
                  /   \      - P O W E R E D   B Y -                         
                 /     \                                                     
                 |  |  |   _    _      __       _____    __    __             
                 |  |  |  | |  | |    /  \     |  _  \  |  |  /  |          
                  \  \/   | |  | |   /    \    | | | |  |  | /  /          
                 / \  \   | |__| |  /  /\  \   | |_| |  |  |/  /          
                |  |  |   |  __  | /  /__\  \  |    /   |      \           
                |  |  |   | |  | | |   __   |  |    \   |  |\   \          
                \     /   | |  | | |  |  |  |  | |\  \  |  | \   \       
                 \___/    |_|  |_| |__|  |__|  |_| \__\ |__|  \__/        
                                                                              
                      - O R C A' S   B I G   F R I E N D -                    
                                      &                                       
                       - I N T E G R A L  F E E D E R -                       
                                                                              
 v1 FN, 2020, v2 2021, v3 2022-2024                                           
------------------------------------------------------------------------------


----------------------
SHARK INTEGRAL PACKAGE
----------------------

Number of atoms                             ...      3
Number of basis functions                   ...    117
Number of shells                            ...     41
Maximum angular momentum                    ...      3
Integral batch strategy                     ... SHARK/LIBINT Hybrid
RI-J (if used) integral strategy            ... SPLIT-RIJ (Revised 2003 algorithm where possible)
Printlevel                                  ...      1
Contraction scheme used                     ... SEGMENTED contraction
Prescreening option                         ... SCHWARTZ
   Thresh                                   ... 2.500e-11
   Tcut                                     ... 2.500e-12
   Tpresel                                  ... 2.500e-12 
Coulomb Range Separation                    ... NOT USED
Exchange Range Separation                   ... NOT USED
Multipole approximations                    ... NOT USED
Finite Nucleus Model                        ... NOT USED
CABS basis                                  ... NOT available
Auxiliary Coulomb fitting basis             ... AVAILABLE
   # of basis functions in Aux-J            ...    147
   # of shells in Aux-J                     ...     45
   Maximum angular momentum in Aux-J        ...      4
Auxiliary J/K fitting basis                 ... NOT available
Auxiliary Correlation fitting basis         ... NOT available
Auxiliary 'external' fitting basis          ... NOT available

Checking pre-screening integrals            ... done (  0.0 sec) Dimension = 41
Check shell pair data                       ... done (  0.0 sec)
Shell pair information
Shell pair cut-off parameter TPreSel        ...   2.5e-12
Total number of shell pairs                 ...       861
Shell pairs after pre-screening             ...       849
Total number of primitive shell pairs       ...      2412
Primitive shell pairs kept                  ...      2113
          la=0 lb=0:    165 shell pairs
          la=1 lb=0:    196 shell pairs
          la=1 lb=1:     66 shell pairs
          la=2 lb=0:    158 shell pairs
          la=2 lb=1:     99 shell pairs
          la=2 lb=2:     45 shell pairs
          la=3 lb=0:     54 shell pairs
          la=3 lb=1:     33 shell pairs
          la=3 lb=2:     27 shell pairs
          la=3 lb=3:      6 shell pairs

Calculating one electron integrals          ... done (  0.0 sec)
Calculating RI/J V-Matrix + Cholesky decomp.... done (  0.0 sec)
Calculating Nuclear repulsion               ... done (  0.0 sec) ENN=     56.445568885333 Eh

Diagonalization of the overlap matrix:
Smallest eigenvalue                        ... 1.201e-04
Time for diagonalization                   ...    0.001 sec
Threshold for overlap eigenvalues          ... 1.000e-07
Number of eigenvalues below threshold      ... 0
Time for construction of square roots      ...    0.000 sec
Total time needed                          ...    0.002 sec

-------------------
DFT GRID GENERATION
-------------------

General Integration Accuracy     IntAcc      ... 4.388
Radial Grid Type                 RadialGrid  ... OptM3 with GC (2021)
Angular Grid (max. ang.)         AngularGrid ... 4 (Lebedev-302)
Angular grid pruning method      GridPruning ... 4 (adaptive)
Weight generation scheme         WeightScheme... mBecke (2022)
Basis function cutoff            BFCut       ... 1.0000e-11
Integration weight cutoff        WCut        ... 1.0000e-14
Partially contracted basis set               ... off
Rotationally invariant grid construction     ... off
Angular grids for H and He will be reduced by one unit
Diffuse basis detected: some atoms will have their outermost
                        angular grid increased by 1.

Total number of grid points                  ...    19310
Total number of batches                      ...      304
Average number of points per batch           ...       63
Average number of grid points per atom       ...     6437

--------------------
COSX GRID GENERATION
--------------------

GRIDX 1
-------
General Integration Accuracy     IntAcc      ... 3.816
Radial Grid Type                 RadialGrid  ... OptM3 with GC (2021)
Angular Grid (max. ang.)         AngularGrid ... 1 (Lebedev-50)
Angular grid pruning method      GridPruning ... 4 (adaptive)
Weight generation scheme         WeightScheme... mBecke (2022)
Basis function cutoff            BFCut       ... 1.0000e-11
Integration weight cutoff        WCut        ... 1.0000e-14
Partially contracted basis set               ... on
Rotationally invariant grid construction     ... off
Angular grids for H and He will be reduced by one unit
Diffuse basis detected: some atoms will have their outermost
                        angular grid increased by 1.

Total number of grid points                  ...     2436
Total number of batches                      ...       20
Average number of points per batch           ...      121
Average number of grid points per atom       ...      812
UseSFitting                                  ... on

GRIDX 2
-------
General Integration Accuracy     IntAcc      ... 4.020
Radial Grid Type                 RadialGrid  ... OptM3 with GC (2021)
Angular Grid (max. ang.)         AngularGrid ... 2 (Lebedev-110)
Angular grid pruning method      GridPruning ... 4 (adaptive)
Weight generation scheme         WeightScheme... mBecke (2022)
Basis function cutoff            BFCut       ... 1.0000e-11
Integration weight cutoff        WCut        ... 1.0000e-14
Partially contracted basis set               ... on
Rotationally invariant grid construction     ... off
Angular grids for H and He will be reduced by one unit
Diffuse basis detected: some atoms will have their outermost
                        angular grid increased by 1.

Total number of grid points                  ...     6852
Total number of batches                      ...       54
Average number of points per batch           ...      126
Average number of grid points per atom       ...     2284
UseSFitting                                  ... on

GRIDX 3
-------
General Integration Accuracy     IntAcc      ... 4.338
Radial Grid Type                 RadialGrid  ... OptM3 with GC (2021)
Angular Grid (max. ang.)         AngularGrid ... 3 (Lebedev-194)
Angular grid pruning method      GridPruning ... 4 (adaptive)
Weight generation scheme         WeightScheme... mBecke (2022)
Basis function cutoff            BFCut       ... 1.0000e-11
Integration weight cutoff        WCut        ... 1.0000e-14
Partially contracted basis set               ... on
Rotationally invariant grid construction     ... off
Angular grids for H and He will be reduced by one unit
Diffuse basis detected: some atoms will have their outermost
                        angular grid increased by 1.

Total number of grid points                  ...    14798
Total number of batches                      ...      116
Average number of points per batch           ...      127
Average number of grid points per atom       ...     4933
UseSFitting                                  ... on
Initializing property integral containers    ... done (  0.0 sec)

SHARK setup successfully completed in   0.3 seconds

Maximum memory used throughout the entire STARTUP-calculation: 13.8 MB
-------------------------------------------------------------------------------
                                 ORCA GUESS
                   Start orbitals & Density for SCF / CASSCF
-------------------------------------------------------------------------------

------------
SCF SETTINGS
------------
Hamiltonian:
 Density Functional     Method          .... DFT(GTOs)
 Exchange Functional    Exchange        .... B88
   X-Alpha parameter    XAlpha          ....  0.666667
   Becke's b parameter  XBeta           ....  0.004200
 Correlation Functional Correlation     .... LYP
 LDA part of GGA corr.  LDAOpt          .... VWN-5
 Gradients option       PostSCFGGA      .... off
 Hybrid DFT is turned on
   Fraction HF Exchange ScalHFX         ....  0.200000
   Scaling of DF-GGA-X  ScalDFX         ....  0.720000
   Scaling of DF-GGA-C  ScalDFC         ....  0.810000
   Scaling of DF-LDA-C  ScalLDAC        ....  1.000000
   Perturbative correction              ....  0.000000
   NL short-range parameter             ....  4.800000
 RI-approximation to the Coulomb term is turned on
   Number of AuxJ basis functions       .... 147
   RIJ-COSX (HFX calculated with COS-X)).... on


General Settings:
 Integral files         IntName         .... co2_opt
 Hartree-Fock type      HFTyp           .... RHF
 Total Charge           Charge          ....    0
 Multiplicity           Mult            ....    1
 Number of Electrons    NEL             ....   22
 Basis Dimension        Dim             ....  117
 Nuclear Repulsion      ENuc            ....     56.4455688853 Eh

Convergence Acceleration:
 AO-DIIS                CNVDIIS         .... on
   Start iteration      DIISMaxIt       ....    12
   Startup error        DIISStart       ....  0.200000
   # of expansion vecs  DIISMaxEq       ....     5
   Bias factor          DIISBfac        ....   1.050
   Max. coefficient     DIISMaxC        ....  10.000
 MO-DIIS                CNVKDIIS        .... off
 Trust-Rad. Augm. Hess. CNVTRAH         .... auto
   Auto Start mean grad. ratio tolernc. ....  1.125000
   Auto Start start iteration           ....    50
   Auto Start num. interpolation iter.  ....    10
   Max. Number of Micro iterations      ....    24
   Max. Number of Macro iterations      .... Maxiter - #DIIS iter
   Number of Davidson start vectors     ....     2
   Converg. threshold    (grad. norm)   ....   1.000e-05
   Grad. Scal. Fac. for Micro threshold ....   0.100
   Minimum threshold for Micro iter.    ....   1.000e-02
   NR start threshold (gradient norm)   ....   1.000e-04
   Initial trust radius                 ....   0.400
   Minimum AH scaling param. (alpha)    ....   1.000
   Maximum AH scaling param. (alpha)    .... 1000.000
   Quad. conv. algorithm                .... NR
   White noise on init. David. guess    .... on
   Maximum white noise                  ....   0.010
   Pseudo random numbers                .... off
   Inactive MOs                         .... canonical
   Orbital update algorithm             .... Taylor
   Preconditioner                       .... Diag
   Full preconditioner red. dimension   ....   250
 SOSCF                  CNVSOSCF        .... on
   Start iteration      SOSCFMaxIt      ....   150
   Startup grad/error   SOSCFStart      ....  0.003300
   Hessian update       SOSCFHessUp     .... L-BFGS
 Level Shifting         CNVShift        .... on
   Level shift para.    LevelShift      ....    0.2500
   Turn off err/grad.   ShiftErr        ....    0.0010
 Zerner damping         CNVZerner       .... off
 Static damping         CNVDamp         .... on
   Fraction old density DampFac         ....    0.7000
   Max. Damping (<1)    DampMax         ....    0.9800
   Min. Damping (>=0)   DampMin         ....    0.0000
   Turn off err/grad.   DampErr         ....    0.1000

SCF Procedure:
 Maximum # iterations   MaxIter         ....   125
 SCF integral mode      SCFMode         .... Direct
   Integral package                     .... SHARK and LIBINT hybrid scheme
 Reset frequency        DirectResetFreq ....    20
 Integral Threshold     Thresh          ....  2.500e-11 Eh
 Primitive CutOff       TCut            ....  2.500e-12 Eh

Convergence Tolerance:
 Convergence Check Mode ConvCheckMode   .... Total+1el-Energy
 Convergence forced     ConvForced      .... 0
 Energy Change          TolE            ....  1.000e-08 Eh
 1-El. energy change                    ....  1.000e-05 Eh
 Orbital Gradient       TolG            ....  1.000e-05
 Orbital Rotation angle TolX            ....  1.000e-05
 DIIS Error             TolErr          ....  5.000e-07

------------------------------
INITIAL GUESS: MODEL POTENTIAL
------------------------------
Loading Hartree-Fock densities                     ... done
Calculating cut-offs                               ... done
Initializing the effective Hamiltonian             ... done
Setting up the integral package (SHARK)            ... done
Starting the Coulomb interaction                   ... done (   0.0 sec)
Making the grid                                    ... done (   0.0 sec)
Mapping shells                                     ... done
Starting the XC term evaluation                    ... done (   0.0 sec)
  promolecular density results
     # of electrons  =     22.000102180
     EX              =    -21.472338776
     EC              =     -0.784627063
     EX+EC           =    -22.256965840
Transforming the Hamiltonian                       ... done (   0.0 sec)
Diagonalizing the Hamiltonian                      ... done (   0.0 sec)
Back transforming the eigenvectors                 ... done (   0.0 sec)
Now organizing SCF variables                       ... done
                      ------------------
                      INITIAL GUESS DONE (   0.1 sec)
                      ------------------
----------------------
INITIAL GUESS ORBITALS
----------------------
                      0         1         2         3         4         5   
                 -18.99674 -18.99672 -10.08569  -1.10054  -1.07518  -0.57482
                   2.00000   2.00000   2.00000   2.00000   2.00000   2.00000
                  --------  --------  --------  --------  --------  --------
  0C   1s        -0.000039  0.000000  0.467453  0.068276  0.000000  0.067445
  0C   2s         0.000232 -0.000000  0.605575  0.140830  0.000000  0.143808
  0C   3s         0.006803 -0.000000  0.053949 -0.255911  0.000000 -0.266661
  0C   4s        -0.046167  0.000000 -0.065376 -0.009312 -0.000000 -0.212204
  0C   5s         0.012993  0.000000  0.032824  0.051661 -0.000000 -0.034526
  0C   1pz       -0.000000 -0.000000 -0.000000 -0.000000 -0.000000 -0.000000
  0C   1px        0.000000  0.001201  0.000000 -0.000000  0.226787 -0.000000
  0C   1py       -0.000000  0.000000  0.000000  0.000000  0.000000 -0.000000
  0C   2pz        0.000000  0.000000  0.000000  0.000000  0.000000 -0.000000
  0C   2px        0.000000 -0.002851 -0.000000  0.000000  0.134786 -0.000000
  0C   2py        0.000000 -0.000000 -0.000000 -0.000000 -0.000000  0.000000
  0C   3pz       -0.000000  0.000000 -0.000000 -0.000000  0.000000 -0.000000
  0C   3px       -0.000000 -0.023129  0.000000  0.000000 -0.015121 -0.000000
  0C   3py        0.000000 -0.000000  0.000000  0.000000 -0.000000  0.000000
  0C   1dz2       0.000839 -0.000000 -0.002800  0.015466  0.000000  0.009005
  0C   1dxz       0.000000  0.000000  0.000000 -0.000000 -0.000000 -0.000000
  0C   1dyz      -0.000000  0.000000 -0.000000 -0.000000  0.000000  0.000000
  0C   1dx2y2    -0.001453  0.000000  0.004850 -0.026788 -0.000000 -0.015598
  0C   1dxy      -0.000000 -0.000000 -0.000000  0.000000 -0.000000 -0.000000
  0C   2dz2       0.008282 -0.000000  0.000061 -0.009442  0.000000  0.000396
  0C   2dxz      -0.000000 -0.000000 -0.000000  0.000000  0.000000  0.000000
  0C   2dyz       0.000000 -0.000000  0.000000  0.000000 -0.000000 -0.000000
  0C   2dx2y2    -0.014344  0.000000 -0.000105  0.016354 -0.000000 -0.000686
  0C   2dxy       0.000000  0.000000  0.000000 -0.000000  0.000000  0.000000
  0C   1f0       -0.000000 -0.000000 -0.000000 -0.000000 -0.000000 -0.000000
  0C   1f+1       0.000000  0.000986  0.000000 -0.000000 -0.012882  0.000000
  0C   1f-1       0.000000 -0.000000  0.000000  0.000000 -0.000000  0.000000
  0C   1f+2       0.000000  0.000000  0.000000  0.000000  0.000000  0.000000
  0C   1f-2      -0.000000  0.000000 -0.000000  0.000000  0.000000 -0.000000
  0C   1f+3       0.000000  0.001272  0.000000 -0.000000 -0.016631  0.000000
  0C   1f-3       0.000000 -0.000000  0.000000  0.000000 -0.000000  0.000000
  0C   6s         0.004025  0.000000  0.016669  0.014433 -0.000000  0.003810
  0C   3dz2      -0.003472  0.000000 -0.006009 -0.003893  0.000000  0.003095
  0C   3dxz      -0.000000 -0.000000 -0.000000  0.000000  0.000000  0.000000
  0C   3dyz       0.000000 -0.000000  0.000000  0.000000 -0.000000  0.000000
  0C   3dx2y2     0.006014 -0.000000  0.010407  0.006743 -0.000000 -0.005361
  0C   3dxy       0.000000  0.000000  0.000000 -0.000000  0.000000  0.000000
  1O   1s        -0.308037  0.308017 -0.000062  0.066182 -0.070670 -0.040665
  1O   2s        -0.451254  0.451414 -0.000257  0.154465 -0.165016 -0.095779
  1O   3s        -0.030176  0.027159  0.003089 -0.234934  0.256304  0.149418
  1O   4s         0.036819 -0.019675 -0.006405 -0.300623  0.278414  0.218575
  1O   5s        -0.007144  0.022977  0.002845 -0.124680  0.066177  0.158955
  1O   1pz        0.000000  0.000000  0.000000  0.000000 -0.000000 -0.000000
  1O   1px        0.001785 -0.001375 -0.000907  0.094485 -0.096741  0.269462
  1O   1py       -0.000000  0.000000 -0.000000 -0.000000 -0.000000 -0.000000
  1O   2pz       -0.000000 -0.000000 -0.000000 -0.000000  0.000000 -0.000000
  1O   2px       -0.010085  0.000821  0.006341  0.077423 -0.048994  0.188322
  1O   2py        0.000000 -0.000000  0.000000  0.000000  0.000000  0.000000
  1O   3pz        0.000000  0.000000  0.000000 -0.000000 -0.000000  0.000000
  1O   3px       -0.004418 -0.004224 -0.012284  0.029347  0.013090  0.079188
  1O   3py       -0.000000 -0.000000 -0.000000 -0.000000 -0.000000 -0.000000
  1O   1dz2       0.000143 -0.000178 -0.000040  0.002811 -0.002837  0.003371
  1O   1dxz       0.000000  0.000000 -0.000000 -0.000000 -0.000000 -0.000000
  1O   1dyz      -0.000000  0.000000 -0.000000 -0.000000 -0.000000  0.000000
  1O   1dx2y2    -0.000248  0.000309  0.000069 -0.004869  0.004913 -0.005839
  1O   1dxy      -0.000000 -0.000000 -0.000000  0.000000 -0.000000 -0.000000
  1O   2dz2      -0.001137  0.000063  0.001910  0.006039 -0.002716  0.004157
  1O   2dxz       0.000000  0.000000  0.000000  0.000000  0.000000  0.000000
  1O   2dyz       0.000000 -0.000000  0.000000  0.000000 -0.000000 -0.000000
  1O   2dx2y2     0.001970 -0.000108 -0.003309 -0.010460  0.004704 -0.007201
  1O   2dxy       0.000000  0.000000 -0.000000 -0.000000  0.000000  0.000000
  1O   1f0        0.000000  0.000000  0.000000  0.000000  0.000000  0.000000
  1O   1f+1       0.000176  0.000001 -0.000821 -0.001157  0.001282 -0.001070
  1O   1f-1       0.000000  0.000000 -0.000000 -0.000000  0.000000  0.000000
  1O   1f+2      -0.000000 -0.000000 -0.000000 -0.000000 -0.000000 -0.000000
  1O   1f-2       0.000000 -0.000000  0.000000  0.000000 -0.000000  0.000000
  1O   1f+3       0.000227  0.000001 -0.001060 -0.001493  0.001655 -0.001381
  1O   1f-3       0.000000  0.000000 -0.000000 -0.000000  0.000000 -0.000000
  1O   6s        -0.002267  0.010326 -0.014530 -0.024314  0.000168  0.005661
  1O   4pz        0.000000  0.000000  0.000000 -0.000000 -0.000000  0.000000
  1O   4px       -0.001015 -0.001721 -0.000566  0.003029  0.001331  0.006515
  1O   4py       -0.000000 -0.000000 -0.000000 -0.000000 -0.000000 -0.000000
  1O   3dz2      -0.000513  0.000368 -0.002690  0.002162  0.003663  0.001268
  1O   3dxz      -0.000000  0.000000 -0.000000  0.000000  0.000000 -0.000000
  1O   3dyz      -0.000000 -0.000000 -0.000000 -0.000000  0.000000  0.000000
  1O   3dx2y2     0.000889 -0.000638  0.004659 -0.003744 -0.006344 -0.002197
  1O   3dxy       0.000000 -0.000000  0.000000  0.000000  0.000000  0.000000
  2O   1s        -0.308037 -0.308017 -0.000062  0.066182  0.070670 -0.040665
  2O   2s        -0.451254 -0.451414 -0.000257  0.154465  0.165016 -0.095779
  2O   3s        -0.030176 -0.027159  0.003089 -0.234934 -0.256304  0.149418
  2O   4s         0.036819  0.019675 -0.006405 -0.300623 -0.278414  0.218575
  2O   5s        -0.007144 -0.022977  0.002845 -0.124680 -0.066177  0.158955
  2O   1pz        0.000000 -0.000000  0.000000  0.000000 -0.000000 -0.000000
  2O   1px       -0.001785 -0.001375  0.000907 -0.094485 -0.096741 -0.269462
  2O   1py       -0.000000  0.000000 -0.000000 -0.000000  0.000000 -0.000000
  2O   2pz       -0.000000  0.000000 -0.000000 -0.000000  0.000000 -0.000000
  2O   2px        0.010085  0.000821 -0.006341 -0.077423 -0.048994 -0.188322
  2O   2py        0.000000 -0.000000  0.000000  0.000000 -0.000000  0.000000
  2O   3pz       -0.000000 -0.000000  0.000000  0.000000  0.000000  0.000000
  2O   3px        0.004418 -0.004224  0.012284 -0.029347  0.013090 -0.079188
  2O   3py       -0.000000  0.000000 -0.000000 -0.000000  0.000000 -0.000000
  2O   1dz2       0.000143  0.000178 -0.000040  0.002811  0.002837  0.003371
  2O   1dxz       0.000000 -0.000000  0.000000  0.000000 -0.000000  0.000000
  2O   1dyz      -0.000000  0.000000 -0.000000 -0.000000  0.000000 -0.000000
  2O   1dx2y2    -0.000248 -0.000309  0.000069 -0.004869 -0.004913 -0.005839
  2O   1dxy      -0.000000 -0.000000 -0.000000 -0.000000 -0.000000 -0.000000
  2O   2dz2      -0.001137 -0.000063  0.001910  0.006039  0.002716  0.004157
  2O   2dxz      -0.000000 -0.000000 -0.000000 -0.000000  0.000000 -0.000000
  2O   2dyz       0.000000 -0.000000  0.000000  0.000000 -0.000000  0.000000
  2O   2dx2y2     0.001970  0.000108 -0.003309 -0.010460 -0.004704 -0.007201
  2O   2dxy       0.000000  0.000000  0.000000  0.000000  0.000000  0.000000
  2O   1f0        0.000000  0.000000  0.000000 -0.000000  0.000000  0.000000
  2O   1f+1      -0.000176  0.000001  0.000821  0.001157  0.001282  0.001070
  2O   1f-1       0.000000  0.000000 -0.000000 -0.000000 -0.000000 -0.000000
  2O   1f+2      -0.000000 -0.000000 -0.000000  0.000000 -0.000000 -0.000000
  2O   1f-2      -0.000000  0.000000 -0.000000  0.000000 -0.000000  0.000000
  2O   1f+3      -0.000227  0.000001  0.001060  0.001493  0.001655  0.001381
  2O   1f-3       0.000000 -0.000000 -0.000000 -0.000000  0.000000 -0.000000
  2O   6s        -0.002267 -0.010326 -0.014530 -0.024314 -0.000168  0.005661
  2O   4pz        0.000000 -0.000000  0.000000  0.000000  0.000000  0.000000
  2O   4px        0.001015 -0.001721  0.000566 -0.003029  0.001331 -0.006515
  2O   4py        0.000000  0.000000 -0.000000 -0.000000  0.000000 -0.000000
  2O   3dz2      -0.000513 -0.000368 -0.002690  0.002162 -0.003663  0.001268
  2O   3dxz       0.000000 -0.000000  0.000000  0.000000 -0.000000  0.000000
  2O   3dyz      -0.000000  0.000000 -0.000000 -0.000000  0.000000 -0.000000
  2O   3dx2y2     0.000889  0.000638  0.004659 -0.003744  0.006344 -0.002197
  2O   3dxy      -0.000000  0.000000 -0.000000 -0.000000  0.000000 -0.000000
                      6         7         8         9        10        11   
                  -0.53905  -0.48826  -0.48826  -0.39689  -0.39689  -0.05511
                   2.00000   2.00000   2.00000   2.00000   2.00000   0.00000
                  --------  --------  --------  --------  --------  --------
  0C   1s        -0.000000  0.000000 -0.000000 -0.000000 -0.000000 -0.000000
  0C   2s        -0.000000  0.000000  0.000000  0.000000  0.000000 -0.000000
  0C   3s         0.000000  0.000000 -0.000000  0.000000 -0.000000 -0.000000
  0C   4s        -0.000000 -0.000000  0.000000 -0.000000  0.000000  0.000000
  0C   5s        -0.000000 -0.000000  0.000000 -0.000000 -0.000000  0.000000
  0C   1pz       -0.000000 -0.034775 -0.257979 -0.000000 -0.000000  0.287285
  0C   1px       -0.253308 -0.000000  0.000000  0.000000 -0.000000  0.000000
  0C   1py        0.000000  0.257979 -0.034775 -0.000000 -0.000000 -0.359882
  0C   2pz        0.000000 -0.024483 -0.181625 -0.000000  0.000000  0.261785
  0C   2px       -0.206998  0.000000 -0.000000 -0.000000  0.000000 -0.000000
  0C   2py       -0.000000  0.181625 -0.024483  0.000000 -0.000000 -0.327938
  0C   3pz        0.000000 -0.002808 -0.020831 -0.000000 -0.000000  0.209323
  0C   3px       -0.009125  0.000000  0.000000 -0.000000 -0.000000 -0.000000
  0C   3py       -0.000000  0.020831 -0.002808  0.000000 -0.000000 -0.262218
  0C   1dz2       0.000000  0.000000 -0.000000  0.000000 -0.000000  0.000000
  0C   1dxz       0.000000  0.000000  0.000000  0.018328  0.024796 -0.000000
  0C   1dyz       0.000000  0.000000  0.000000 -0.000000  0.000000 -0.000000
  0C   1dx2y2    -0.000000 -0.000000  0.000000 -0.000000  0.000000 -0.000000
  0C   1dxy      -0.000000  0.000000 -0.000000 -0.024796  0.018328  0.000000
  0C   2dz2       0.000000  0.000000 -0.000000  0.000000  0.000000 -0.000000
  0C   2dxz      -0.000000 -0.000000 -0.000000  0.022112  0.029915  0.000000
  0C   2dyz      -0.000000 -0.000000 -0.000000  0.000000 -0.000000  0.000000
  0C   2dx2y2    -0.000000 -0.000000  0.000000 -0.000000 -0.000000  0.000000
  0C   2dxy       0.000000 -0.000000  0.000000 -0.029915  0.022112 -0.000000
  0C   1f0        0.000000  0.001491  0.011057 -0.000000 -0.000000  0.000715
  0C   1f+1       0.013138 -0.000000  0.000000  0.000000 -0.000000  0.000000
  0C   1f-1      -0.000000 -0.004517  0.000609  0.000000 -0.000000 -0.000357
  0C   1f+2      -0.000000 -0.001925 -0.014279  0.000000  0.000000 -0.000914
  0C   1f-2       0.000000 -0.000000  0.000000  0.000000 -0.000000  0.000000
  0C   1f+3       0.016962 -0.000000  0.000000  0.000000 -0.000000  0.000000
  0C   1f-3      -0.000000 -0.017486  0.002357  0.000000 -0.000000 -0.001409
  0C   6s        -0.000000 -0.000000  0.000000 -0.000000 -0.000000  0.000000
  0C   3dz2       0.000000  0.000000  0.000000  0.000000  0.000000 -0.000000
  0C   3dxz      -0.000000 -0.000000 -0.000000 -0.003994 -0.005403  0.000000
  0C   3dyz       0.000000  0.000000  0.000000  0.000000  0.000000 -0.000000
  0C   3dx2y2    -0.000000 -0.000000 -0.000000 -0.000000 -0.000000  0.000000
  0C   3dxy       0.000000 -0.000000  0.000000  0.005403 -0.003994 -0.000000
  1O   1s        -0.031308 -0.000000  0.000000  0.000000 -0.000000  0.000000
  1O   2s        -0.073738  0.000000 -0.000000 -0.000000 -0.000000  0.000000
  1O   3s         0.109936 -0.000000  0.000000  0.000000  0.000000 -0.000000
  1O   4s         0.204082  0.000000 -0.000000 -0.000000 -0.000000 -0.000000
  1O   5s         0.182395  0.000000 -0.000000  0.000000  0.000000 -0.000000
  1O   1pz        0.000000 -0.039674 -0.294323  0.220120  0.297799 -0.164810
  1O   1px        0.315517  0.000000 -0.000000  0.000000 -0.000000  0.000000
  1O   1py       -0.000000  0.294323 -0.039674 -0.297799  0.220120  0.206457
  1O   2pz       -0.000000 -0.030177 -0.223863  0.173557  0.234804 -0.137705
  1O   2px        0.201192 -0.000000  0.000000 -0.000000  0.000000  0.000000
  1O   2py       -0.000000  0.223863 -0.030177 -0.234804  0.173557  0.172503
  1O   3pz        0.000000 -0.015319 -0.113642  0.098616  0.133417 -0.137943
  1O   3px        0.060990 -0.000000  0.000000 -0.000000 -0.000000  0.000000
  1O   3py        0.000000  0.113642 -0.015319 -0.133417  0.098616  0.172801
  1O   1dz2       0.003830  0.000000 -0.000000  0.000000 -0.000000 -0.000000
  1O   1dxz       0.000000  0.000955  0.007083 -0.002987 -0.004041 -0.004603
  1O   1dyz      -0.000000 -0.000000  0.000000 -0.000000 -0.000000  0.000000
  1O   1dx2y2    -0.006634 -0.000000  0.000000 -0.000000  0.000000  0.000000
  1O   1dxy      -0.000000 -0.007083  0.000955  0.004041 -0.002987  0.005766
  1O   2dz2       0.002220 -0.000000  0.000000 -0.000000  0.000000  0.000000
  1O   2dxz      -0.000000  0.001928  0.014306 -0.008303 -0.011233 -0.014356
  1O   2dyz       0.000000  0.000000  0.000000  0.000000  0.000000 -0.000000
  1O   2dx2y2    -0.003845  0.000000 -0.000000  0.000000 -0.000000 -0.000000
  1O   2dxy       0.000000 -0.014306  0.001928  0.011233 -0.008303  0.017983
  1O   1f0       -0.000000  0.000275  0.002037 -0.001446 -0.001956 -0.001046
  1O   1f+1      -0.001477 -0.000000  0.000000  0.000000 -0.000000  0.000000
  1O   1f-1       0.000000 -0.000824  0.000111  0.000791 -0.000585  0.000539
  1O   1f+2       0.000000 -0.000353 -0.002620  0.001860  0.002516  0.001354
  1O   1f-2      -0.000000  0.000000 -0.000000  0.000000 -0.000000  0.000000
  1O   1f+3      -0.001906 -0.000000 -0.000000  0.000000 -0.000000  0.000000
  1O   1f-3       0.000000 -0.003215  0.000433  0.003087 -0.002282  0.002075
  1O   6s         0.021336  0.000000 -0.000000  0.000000  0.000000 -0.000000
  1O   4pz        0.000000 -0.001039 -0.007710  0.010245  0.013860 -0.002928
  1O   4px        0.001989 -0.000000  0.000000 -0.000000 -0.000000  0.000000
  1O   4py        0.000000  0.007710 -0.001039 -0.013860  0.010245  0.003668
  1O   3dz2      -0.003576 -0.000000  0.000000 -0.000000  0.000000 -0.000000
  1O   3dxz      -0.000000  0.000832  0.006173 -0.000801 -0.001084 -0.030433
  1O   3dyz      -0.000000 -0.000000 -0.000000 -0.000000 -0.000000  0.000000
  1O   3dx2y2     0.006193  0.000000 -0.000000  0.000000 -0.000000  0.000000
  1O   3dxy      -0.000000 -0.006173  0.000832  0.001084 -0.000801  0.038123
  2O   1s         0.031308  0.000000  0.000000  0.000000  0.000000  0.000000
  2O   2s         0.073738  0.000000 -0.000000  0.000000 -0.000000  0.000000
  2O   3s        -0.109936 -0.000000  0.000000 -0.000000  0.000000 -0.000000
  2O   4s        -0.204082  0.000000 -0.000000  0.000000 -0.000000 -0.000000
  2O   5s        -0.182395  0.000000 -0.000000  0.000000  0.000000 -0.000000
  2O   1pz       -0.000000 -0.039674 -0.294323 -0.220120 -0.297799 -0.164810
  2O   1px        0.315517 -0.000000  0.000000 -0.000000  0.000000 -0.000000
  2O   1py        0.000000  0.294323 -0.039674  0.297799 -0.220120  0.206457
  2O   2pz        0.000000 -0.030177 -0.223863 -0.173557 -0.234804 -0.137705
  2O   2px        0.201192  0.000000 -0.000000  0.000000  0.000000 -0.000000
  2O   2py       -0.000000  0.223863 -0.030177  0.234804 -0.173557  0.172503
  2O   3pz       -0.000000 -0.015319 -0.113642 -0.098616 -0.133417 -0.137943
  2O   3px        0.060990  0.000000 -0.000000  0.000000  0.000000 -0.000000
  2O   3py        0.000000  0.113642 -0.015319  0.133417 -0.098616  0.172801
  2O   1dz2      -0.003830  0.000000 -0.000000 -0.000000  0.000000 -0.000000
  2O   1dxz       0.000000 -0.000955 -0.007083 -0.002987 -0.004041  0.004603
  2O   1dyz       0.000000 -0.000000 -0.000000  0.000000 -0.000000  0.000000
  2O   1dx2y2     0.006634 -0.000000  0.000000  0.000000  0.000000  0.000000
  2O   1dxy      -0.000000  0.007083 -0.000955  0.004041 -0.002987 -0.005766
  2O   2dz2      -0.002220 -0.000000  0.000000 -0.000000 -0.000000  0.000000
  2O   2dxz      -0.000000 -0.001928 -0.014306 -0.008303 -0.011233  0.014356
  2O   2dyz       0.000000  0.000000  0.000000 -0.000000  0.000000 -0.000000
  2O   2dx2y2     0.003845  0.000000 -0.000000  0.000000  0.000000 -0.000000
  2O   2dxy       0.000000  0.014306 -0.001928  0.011233 -0.008303 -0.017983
  2O   1f0        0.000000  0.000275  0.002037  0.001446  0.001956 -0.001046
  2O   1f+1      -0.001477 -0.000000  0.000000  0.000000 -0.000000  0.000000
  2O   1f-1      -0.000000 -0.000824  0.000111 -0.000791  0.000585  0.000539
  2O   1f+2      -0.000000 -0.000353 -0.002620 -0.001860 -0.002516  0.001354
  2O   1f-2       0.000000 -0.000000  0.000000 -0.000000 -0.000000 -0.000000
  2O   1f+3      -0.001906 -0.000000  0.000000  0.000000  0.000000  0.000000
  2O   1f-3      -0.000000 -0.003215  0.000433 -0.003087  0.002282  0.002075
  2O   6s        -0.021336  0.000000 -0.000000  0.000000  0.000000 -0.000000
  2O   4pz       -0.000000 -0.001039 -0.007710 -0.010245 -0.013860 -0.002928
  2O   4px        0.001989  0.000000 -0.000000 -0.000000  0.000000 -0.000000
  2O   4py        0.000000  0.007710 -0.001039  0.013860 -0.010245  0.003668
  2O   3dz2       0.003576 -0.000000  0.000000 -0.000000 -0.000000  0.000000
  2O   3dxz      -0.000000 -0.000832 -0.006173 -0.000801 -0.001084  0.030433
  2O   3dyz      -0.000000 -0.000000 -0.000000 -0.000000 -0.000000  0.000000
  2O   3dx2y2    -0.006193  0.000000 -0.000000  0.000000  0.000000 -0.000000
  2O   3dxy       0.000000  0.006173 -0.000832  0.001084 -0.000801 -0.038123
                     12        13        14        15        16        17   
                  -0.05511  -0.04806   0.03611   0.04717   0.04717   0.05773
                   0.00000   0.00000   0.00000   0.00000   0.00000   0.00000
                  --------  --------  --------  --------  --------  --------
  0C   1s         0.000000 -0.030990 -0.000000  0.000000 -0.000000  0.029395
  0C   2s         0.000000 -0.066640 -0.000000  0.000000 -0.000000  0.062851
  0C   3s         0.000000  0.067198  0.000000 -0.000000  0.000000 -0.207724
  0C   4s        -0.000000  0.390849 -0.000000  0.000000 -0.000000  0.791934
  0C   5s        -0.000000  1.770649 -0.000000  0.000000 -0.000000  5.477631
  0C   1pz        0.359882 -0.000000  0.000000  0.085506  0.091441 -0.000000
  0C   1px        0.000000  0.000000  0.028119  0.000000  0.000000  0.000000
  0C   1py        0.287285  0.000000 -0.000000 -0.091441  0.085506  0.000000
  0C   2pz        0.327938 -0.000000 -0.000000  0.090038  0.096288  0.000000
  0C   2px       -0.000000 -0.000000  0.563711  0.000000 -0.000000 -0.000000
  0C   2py        0.261785  0.000000  0.000000 -0.096288  0.090038 -0.000000
  0C   3pz        0.262218 -0.000000 -0.000000  0.586024  0.626700 -0.000000
  0C   3px       -0.000000 -0.000000  1.462041 -0.000000 -0.000000 -0.000000
  0C   3py        0.209323  0.000000  0.000000 -0.626700  0.586024  0.000000
  0C   1dz2       0.000000  0.022080  0.000000 -0.000000  0.000000 -0.023074
  0C   1dxz       0.000000 -0.000000 -0.000000  0.000000 -0.000000 -0.000000
  0C   1dyz       0.000000 -0.000000  0.000000 -0.000000  0.000000 -0.000000
  0C   1dx2y2    -0.000000 -0.038244 -0.000000  0.000000 -0.000000  0.039965
  0C   1dxy       0.000000 -0.000000  0.000000  0.000000 -0.000000 -0.000000
  0C   2dz2       0.000000 -0.008081  0.000000 -0.000000  0.000000 -0.169856
  0C   2dxz      -0.000000  0.000000  0.000000 -0.000000  0.000000  0.000000
  0C   2dyz      -0.000000  0.000000 -0.000000  0.000000 -0.000000  0.000000
  0C   2dx2y2    -0.000000  0.013996 -0.000000  0.000000 -0.000000  0.294199
  0C   2dxy      -0.000000  0.000000 -0.000000 -0.000000  0.000000  0.000000
  0C   1f0        0.000895 -0.000000  0.000000  0.000035  0.000037 -0.000000
  0C   1f+1       0.000000  0.000000 -0.014602 -0.000000  0.000000  0.000000
  0C   1f-1       0.000285  0.000000 -0.000000 -0.000012  0.000011  0.000000
  0C   1f+2      -0.001145  0.000000 -0.000000 -0.000041 -0.000044  0.000000
  0C   1f-2      -0.000000  0.000000  0.000000  0.000000  0.000000  0.000000
  0C   1f+3       0.000000  0.000000 -0.018851 -0.000000  0.000000  0.000000
  0C   1f-3       0.001125  0.000000 -0.000000 -0.000056  0.000052  0.000000
  0C   6s        -0.000000  3.025185 -0.000000  0.000000 -0.000000  7.095316
  0C   3dz2       0.000000 -0.184335 -0.000000 -0.000000  0.000000 -0.489114
  0C   3dxz      -0.000000  0.000000  0.000000  0.000000 -0.000000  0.000000
  0C   3dyz       0.000000  0.000000 -0.000000 -0.000000  0.000000 -0.000000
  0C   3dx2y2    -0.000000  0.319277  0.000000  0.000000 -0.000000  0.847170
  0C   3dxy      -0.000000  0.000000 -0.000000 -0.000000 -0.000000 -0.000000
  1O   1s        -0.000000  0.028794  0.014208 -0.000000  0.000000 -0.012265
  1O   2s        -0.000000  0.069750  0.034739 -0.000000  0.000000 -0.030479
  1O   3s        -0.000000 -0.126871 -0.059430  0.000000 -0.000000  0.070389
  1O   4s         0.000000 -0.206440 -0.101714 -0.000000 -0.000000  0.020423
  1O   5s         0.000000 -0.562950 -0.926398 -0.000000  0.000000 -1.110510
  1O   1pz       -0.206457  0.000000 -0.000000  0.033173  0.035475  0.000000
  1O   1px       -0.000000  0.137959 -0.051536 -0.000000  0.000000 -0.178629
  1O   1py       -0.164810 -0.000000  0.000000 -0.035475  0.033173 -0.000000
  1O   2pz       -0.172503  0.000000  0.000000  0.040185  0.042974 -0.000000
  1O   2px       -0.000000  0.134845  0.036053  0.000000 -0.000000 -0.063179
  1O   2py       -0.137705 -0.000000  0.000000 -0.042974  0.040185  0.000000
  1O   3pz       -0.172801  0.000000 -0.000000 -0.089347 -0.095549 -0.000000
  1O   3px       -0.000000  0.222465  0.504864  0.000000 -0.000000  0.660451
  1O   3py       -0.137943 -0.000000  0.000000  0.095549 -0.089347  0.000000
  1O   1dz2       0.000000  0.000456 -0.001012 -0.000000  0.000000 -0.001961
  1O   1dxz      -0.005766  0.000000 -0.000000 -0.001291 -0.001381 -0.000000
  1O   1dyz      -0.000000  0.000000  0.000000  0.000000 -0.000000  0.000000
  1O   1dx2y2    -0.000000 -0.000790  0.001752  0.000000 -0.000000  0.003396
  1O   1dxy      -0.004603 -0.000000  0.000000  0.001381 -0.001291  0.000000
  1O   2dz2      -0.000000  0.003460  0.015033  0.000000 -0.000000  0.017352
  1O   2dxz      -0.017983  0.000000  0.000000 -0.013863 -0.014825  0.000000
  1O   2dyz       0.000000 -0.000000 -0.000000 -0.000000  0.000000 -0.000000
  1O   2dx2y2     0.000000 -0.005993 -0.026038 -0.000000  0.000000 -0.030054
  1O   2dxy      -0.014356 -0.000000 -0.000000  0.014825 -0.013863 -0.000000
  1O   1f0       -0.001311  0.000000 -0.000000 -0.001019 -0.001090  0.000000
  1O   1f+1       0.000000 -0.000265 -0.001671 -0.000000  0.000000 -0.000348
  1O   1f-1      -0.000430 -0.000000  0.000000  0.000444 -0.000415 -0.000000
  1O   1f+2       0.001697 -0.000000  0.000000  0.001315  0.001406 -0.000000
  1O   1f-2      -0.000000  0.000000 -0.000000  0.000000 -0.000000  0.000000
  1O   1f+3       0.000000 -0.000342 -0.002158 -0.000000  0.000000 -0.000449
  1O   1f-3      -0.001657 -0.000000  0.000000  0.001722 -0.001611 -0.000000
  1O   6s         0.000000 -1.692158 -2.244059 -0.000000  0.000000 -5.650128
  1O   4pz       -0.003668 -0.000000 -0.000000 -0.578780 -0.618954 -0.000000
  1O   4px       -0.000000  0.334867  1.563332  0.000000 -0.000000  1.634753
  1O   4py       -0.002928  0.000000  0.000000  0.618954 -0.578780 -0.000000
  1O   3dz2      -0.000000 -0.002442  0.088655  0.000000 -0.000000  0.081414
  1O   3dxz      -0.038123  0.000000 -0.000000  0.097176  0.103921  0.000000
  1O   3dyz      -0.000000 -0.000000  0.000000  0.000000 -0.000000 -0.000000
  1O   3dx2y2     0.000000  0.004230 -0.153555 -0.000000  0.000000 -0.141013
  1O   3dxy      -0.030433 -0.000000  0.000000 -0.103921  0.097176 -0.000000
  2O   1s        -0.000000  0.028794 -0.014208 -0.000000  0.000000 -0.012265
  2O   2s        -0.000000  0.069750 -0.034739 -0.000000  0.000000 -0.030479
  2O   3s        -0.000000 -0.126871  0.059430  0.000000 -0.000000  0.070389
  2O   4s         0.000000 -0.206440  0.101714 -0.000000 -0.000000  0.020423
  2O   5s         0.000000 -0.562950  0.926398 -0.000000  0.000000 -1.110510
  2O   1pz       -0.206457  0.000000 -0.000000  0.033173  0.035475 -0.000000
  2O   1px        0.000000 -0.137959 -0.051536  0.000000 -0.000000  0.178629
  2O   1py       -0.164810 -0.000000  0.000000 -0.035475  0.033173 -0.000000
  2O   2pz       -0.172503  0.000000 -0.000000  0.040185  0.042974 -0.000000
  2O   2px        0.000000 -0.134845  0.036053 -0.000000 -0.000000  0.063179
  2O   2py       -0.137705 -0.000000  0.000000 -0.042974  0.040185  0.000000
  2O   3pz       -0.172801  0.000000  0.000000 -0.089347 -0.095549  0.000000
  2O   3px        0.000000 -0.222465  0.504864 -0.000000  0.000000 -0.660451
  2O   3py       -0.137943 -0.000000 -0.000000  0.095549 -0.089347  0.000000
  2O   1dz2       0.000000  0.000456  0.001012 -0.000000  0.000000 -0.001961
  2O   1dxz       0.005766 -0.000000 -0.000000  0.001291  0.001381 -0.000000
  2O   1dyz      -0.000000 -0.000000 -0.000000  0.000000 -0.000000  0.000000
  2O   1dx2y2    -0.000000 -0.000790 -0.001752  0.000000 -0.000000  0.003396
  2O   1dxy       0.004603  0.000000  0.000000 -0.001381  0.001291 -0.000000
  2O   2dz2      -0.000000  0.003460 -0.015033  0.000000  0.000000  0.017352
  2O   2dxz       0.017983 -0.000000  0.000000  0.013863  0.014825 -0.000000
  2O   2dyz       0.000000  0.000000  0.000000 -0.000000  0.000000 -0.000000
  2O   2dx2y2     0.000000 -0.005993  0.026038 -0.000000 -0.000000 -0.030054
  2O   2dxy       0.014356  0.000000 -0.000000 -0.014825  0.013863  0.000000
  2O   1f0       -0.001311  0.000000 -0.000000 -0.001019 -0.001090  0.000000
  2O   1f+1      -0.000000  0.000265 -0.001671  0.000000  0.000000  0.000348
  2O   1f-1      -0.000430 -0.000000  0.000000  0.000444 -0.000415 -0.000000
  2O   1f+2       0.001697 -0.000000  0.000000  0.001315  0.001406 -0.000000
  2O   1f-2      -0.000000 -0.000000 -0.000000 -0.000000  0.000000 -0.000000
  2O   1f+3      -0.000000  0.000342 -0.002158  0.000000  0.000000  0.000449
  2O   1f-3      -0.001657 -0.000000  0.000000  0.001722 -0.001611 -0.000000
  2O   6s         0.000000 -1.692158  2.244059 -0.000000  0.000000 -5.650128
  2O   4pz       -0.003668  0.000000  0.000000 -0.578780 -0.618954  0.000000
  2O   4px        0.000000 -0.334867  1.563332 -0.000000  0.000000 -1.634753
  2O   4py       -0.002928  0.000000 -0.000000  0.618954 -0.578780 -0.000000
  2O   3dz2      -0.000000 -0.002442 -0.088655  0.000000 -0.000000  0.081414
  2O   3dxz       0.038123 -0.000000  0.000000 -0.097176 -0.103921  0.000000
  2O   3dyz      -0.000000 -0.000000 -0.000000  0.000000 -0.000000 -0.000000
  2O   3dx2y2     0.000000  0.004230  0.153555 -0.000000  0.000000 -0.141013
  2O   3dxy       0.030433  0.000000 -0.000000  0.103921 -0.097176  0.000000
                     18        19        20        21        22        23   
                   0.09093   0.09093   0.09229   0.16811   0.16811   0.16834
                   0.00000   0.00000   0.00000   0.00000   0.00000   0.00000
                  --------  --------  --------  --------  --------  --------
  0C   1s         0.000000  0.000000 -0.042025  0.000000 -0.000000 -0.000000
  0C   2s         0.000000  0.000000 -0.088056  0.000000 -0.000000 -0.000000
  0C   3s        -0.000000  0.000000  0.061250  0.000000  0.000000  0.000000
  0C   4s         0.000000 -0.000000  1.512807 -0.000000 -0.000000 -0.000000
  0C   5s         0.000000  0.000000 -1.413127 -0.000000 -0.000000  0.000000
  0C   1pz       -0.000000  0.000000  0.000000  0.000000  0.000000  0.000000
  0C   1px       -0.000000 -0.000000 -0.000000 -0.000000 -0.000000  0.003966
  0C   1py        0.000000  0.000000 -0.000000 -0.000000 -0.000000 -0.000000
  0C   2pz        0.000000 -0.000000 -0.000000 -0.000000 -0.000000  0.000000
  0C   2px        0.000000  0.000000  0.000000 -0.000000 -0.000000  0.812914
  0C   2py       -0.000000 -0.000000  0.000000  0.000000  0.000000 -0.000000
  0C   3pz        0.000000  0.000000  0.000000 -0.000000 -0.000000 -0.000000
  0C   3px        0.000000 -0.000000  0.000000 -0.000001 -0.000000  5.634756
  0C   3py       -0.000000  0.000000 -0.000000  0.000000  0.000000  0.000000
  0C   1dz2      -0.000000 -0.000000  0.010405  0.000000 -0.025141 -0.000000
  0C   1dxz      -0.000425 -0.000338  0.000000 -0.000000 -0.000000 -0.000000
  0C   1dyz      -0.000000 -0.000000  0.000000  0.029032  0.000000  0.000000
  0C   1dx2y2     0.000000  0.000000 -0.018022  0.000000 -0.014515 -0.000000
  0C   1dxy       0.000338 -0.000425  0.000000 -0.000000 -0.000000  0.000000
  0C   2dz2      -0.000000  0.000000  0.028917  0.000000 -0.002501 -0.000000
  0C   2dxz       0.073259  0.058219  0.000000  0.000000  0.000000  0.000000
  0C   2dyz       0.000000  0.000000 -0.000000  0.002871  0.000000  0.000000
  0C   2dx2y2     0.000000 -0.000000 -0.050086 -0.000000 -0.001444  0.000000
  0C   2dxy      -0.058219  0.073259 -0.000000  0.000000  0.000000 -0.000000
  0C   1f0       -0.000000  0.000000  0.000000  0.000000  0.000000  0.000000
  0C   1f+1      -0.000000 -0.000000 -0.000000  0.000000  0.000000 -0.019778
  0C   1f-1       0.000000  0.000000 -0.000000 -0.000000 -0.000000 -0.000000
  0C   1f+2       0.000000 -0.000000 -0.000000 -0.000000 -0.000000 -0.000000
  0C   1f-2      -0.000000  0.000000 -0.000000 -0.000000  0.000000 -0.000000
  0C   1f+3      -0.000000 -0.000000 -0.000000  0.000000  0.000000 -0.025533
  0C   1f-3       0.000000  0.000000 -0.000000 -0.000000 -0.000000  0.000000
  0C   6s         0.000000  0.000000 -7.112924 -0.000000  0.000000  0.000000
  0C   3dz2      -0.000000 -0.000000  0.959961  0.000000 -0.896221 -0.000000
  0C   3dxz       0.690904  0.549057  0.000000  0.000000  0.000000  0.000000
  0C   3dyz      -0.000000 -0.000000 -0.000000  1.034892  0.000000  0.000000
  0C   3dx2y2     0.000000  0.000000 -1.662700  0.000000 -0.517434  0.000000
  0C   3dxy      -0.549057  0.690904  0.000000  0.000000  0.000000 -0.000000
  1O   1s        -0.000000 -0.000000  0.017218  0.000000  0.000000 -0.017518
  1O   2s        -0.000000 -0.000000  0.040895  0.000000  0.000000 -0.042389
  1O   3s         0.000000  0.000000 -0.059856 -0.000000 -0.000000  0.083726
  1O   4s        -0.000000  0.000000 -0.213200 -0.000000 -0.000000  0.183935
  1O   5s        -0.000000 -0.000000  0.631544  0.000000  0.000000 -1.627981
  1O   1pz        0.053505  0.042520  0.000000 -0.000000 -0.000000 -0.000000
  1O   1px       -0.000000 -0.000000  0.093505 -0.000000 -0.000000  0.039854
  1O   1py       -0.042520  0.053505  0.000000  0.000000  0.000000  0.000000
  1O   2pz        0.065287  0.051883  0.000000 -0.000000 -0.000000  0.000000
  1O   2px        0.000000  0.000000  0.070843 -0.000000 -0.000000  0.087352
  1O   2py       -0.051883  0.065287  0.000000 -0.000000 -0.000000 -0.000000
  1O   3pz       -0.259042 -0.205859 -0.000000 -0.000000 -0.000000 -0.000000
  1O   3px        0.000000  0.000000  0.332675 -0.000000 -0.000000  1.290755
  1O   3py        0.205859 -0.259042 -0.000000 -0.000000 -0.000000  0.000000
  1O   1dz2      -0.000000  0.000000 -0.001430  0.000000 -0.002332 -0.003078
  1O   1dxz      -0.002032 -0.001615 -0.000000 -0.000000 -0.000000  0.000000
  1O   1dyz       0.000000  0.000000 -0.000000  0.002691  0.000000  0.000000
  1O   1dx2y2     0.000000 -0.000000  0.002476 -0.000000 -0.001347  0.005331
  1O   1dxy       0.001615 -0.002032 -0.000000 -0.000000 -0.000000  0.000000
  1O   2dz2       0.000000  0.000000 -0.005766 -0.000000 -0.027762  0.025102
  1O   2dxz      -0.000325 -0.000258 -0.000000  0.000000  0.000000 -0.000000
  1O   2dyz      -0.000000 -0.000000  0.000000  0.032055  0.000000  0.000000
  1O   2dx2y2    -0.000000 -0.000000  0.009987  0.000000 -0.016029 -0.043478
  1O   2dxy       0.000258 -0.000325  0.000000  0.000000  0.000000 -0.000000
  1O   1f0        0.000126  0.000100 -0.000000 -0.000000 -0.000000 -0.000000
  1O   1f+1      -0.000000 -0.000000 -0.000158  0.000000  0.001949 -0.002349
  1O   1f-1      -0.000041  0.000052  0.000000  0.000000  0.000000 -0.000000
  1O   1f+2      -0.000162 -0.000129  0.000000  0.000000 -0.000000  0.000000
  1O   1f-2       0.000000  0.000000 -0.000000 -0.002464 -0.000000 -0.000000
  1O   1f+3      -0.000000 -0.000000 -0.000203  0.000000 -0.001510 -0.003033
  1O   1f-3      -0.000158  0.000199  0.000000  0.000000  0.000000 -0.000000
  1O   6s        -0.000000 -0.000000  4.435863  0.000001  0.000000 -8.872815
  1O   4pz       -1.349681 -1.072582 -0.000000 -0.000000 -0.000000 -0.000000
  1O   4px       -0.000000 -0.000000  0.624578 -0.000000 -0.000000  2.916239
  1O   4py        1.072582 -1.349681 -0.000000  0.000000  0.000000  0.000000
  1O   3dz2      -0.000000 -0.000000  0.106807 -0.000000  0.032642  0.026815
  1O   3dxz       0.119542  0.094999  0.000000  0.000000  0.000000  0.000000
  1O   3dyz       0.000000 -0.000000  0.000000 -0.037703 -0.000000 -0.000000
  1O   3dx2y2     0.000000  0.000000 -0.184995  0.000000  0.018846 -0.046445
  1O   3dxy      -0.094999  0.119542  0.000000  0.000000  0.000000 -0.000000
  2O   1s        -0.000000 -0.000000  0.017218 -0.000000 -0.000000  0.017518
  2O   2s        -0.000000 -0.000000  0.040895 -0.000000 -0.000000  0.042389
  2O   3s         0.000000 -0.000000 -0.059856  0.000000  0.000000 -0.083726
  2O   4s         0.000000  0.000000 -0.213200  0.000000  0.000000 -0.183935
  2O   5s        -0.000000 -0.000000  0.631544 -0.000000 -0.000000  1.627981
  2O   1pz       -0.053505 -0.042520 -0.000000 -0.000000 -0.000000  0.000000
  2O   1px        0.000000  0.000000 -0.093505 -0.000000 -0.000000  0.039854
  2O   1py        0.042520 -0.053505  0.000000  0.000000  0.000000 -0.000000
  2O   2pz       -0.065287 -0.051883 -0.000000  0.000000  0.000000  0.000000
  2O   2px       -0.000000  0.000000 -0.070843 -0.000000 -0.000000  0.087352
  2O   2py        0.051883 -0.065287 -0.000000 -0.000000 -0.000000 -0.000000
  2O   3pz        0.259042  0.205859  0.000000  0.000000  0.000000  0.000000
  2O   3px        0.000000  0.000000 -0.332674 -0.000000 -0.000000  1.290755
  2O   3py       -0.205859  0.259042 -0.000000 -0.000000 -0.000000 -0.000000
  2O   1dz2       0.000000  0.000000 -0.001430 -0.000000 -0.002332  0.003078
  2O   1dxz      -0.002032 -0.001615 -0.000000 -0.000000 -0.000000 -0.000000
  2O   1dyz       0.000000  0.000000  0.000000  0.002691  0.000000  0.000000
  2O   1dx2y2    -0.000000 -0.000000  0.002476  0.000000 -0.001347 -0.005331
  2O   1dxy       0.001615 -0.002032  0.000000  0.000000  0.000000  0.000000
  2O   2dz2       0.000000 -0.000000 -0.005766  0.000000 -0.027762 -0.025102
  2O   2dxz      -0.000325 -0.000258  0.000000  0.000000  0.000000  0.000000
  2O   2dyz      -0.000000 -0.000000 -0.000000  0.032055  0.000000  0.000000
  2O   2dx2y2    -0.000000  0.000000  0.009987 -0.000000 -0.016029  0.043478
  2O   2dxy       0.000258 -0.000325 -0.000000 -0.000000 -0.000000 -0.000000
  2O   1f0       -0.000126 -0.000100 -0.000000 -0.000000 -0.000000 -0.000000
  2O   1f+1      -0.000000 -0.000000  0.000158  0.000000 -0.001949 -0.002349
  2O   1f-1       0.000041 -0.000052  0.000000  0.000000  0.000000  0.000000
  2O   1f+2       0.000162  0.000129  0.000000  0.000000  0.000000  0.000000
  2O   1f-2      -0.000000 -0.000000  0.000000  0.002464  0.000000  0.000000
  2O   1f+3      -0.000000 -0.000000  0.000203  0.000000  0.001510 -0.003033
  2O   1f-3       0.000158 -0.000199  0.000000  0.000000  0.000000  0.000000
  2O   6s        -0.000000 -0.000000  4.435863 -0.000001 -0.000000  8.872815
  2O   4pz        1.349681  1.072582  0.000000  0.000000  0.000000  0.000000
  2O   4px        0.000000  0.000000 -0.624578 -0.000000 -0.000000  2.916239
  2O   4py       -1.072582  1.349681  0.000000  0.000000  0.000000 -0.000000
  2O   3dz2      -0.000000 -0.000000  0.106807  0.000000  0.032642 -0.026815
  2O   3dxz       0.119542  0.094999  0.000000  0.000000  0.000000  0.000000
  2O   3dyz      -0.000000 -0.000000  0.000000 -0.037703 -0.000000 -0.000000
  2O   3dx2y2     0.000000  0.000000 -0.184995 -0.000000  0.018846  0.046446
  2O   3dxy      -0.094999  0.119542 -0.000000 -0.000000 -0.000000 -0.000000
                     24        25        26        27        28        29   
                   0.20937   0.28625   0.28625   0.29735   0.31560   0.31560
                   0.00000   0.00000   0.00000   0.00000   0.00000   0.00000
                  --------  --------  --------  --------  --------  --------
  0C   1s         0.049911  0.000000  0.000000  0.052231 -0.000000 -0.000000
  0C   2s         0.111769  0.000000  0.000000  0.124031 -0.000000 -0.000000
  0C   3s        -0.025531 -0.000000 -0.000000 -0.688733  0.000000 -0.000000
  0C   4s        -1.913655  0.000000  0.000000  3.899621 -0.000000  0.000000
  0C   5s       -14.288217  0.000000  0.000000  3.966175 -0.000000  0.000000
  0C   1pz       -0.000000 -0.179418 -0.173458  0.000000  0.000000 -0.000000
  0C   1px       -0.000000  0.000000  0.000000  0.000000  0.000000  0.000000
  0C   1py       -0.000000  0.173458 -0.179418 -0.000000  0.000000 -0.000000
  0C   2pz       -0.000000 -0.234879 -0.227077  0.000000 -0.000000  0.000000
  0C   2px        0.000000 -0.000000 -0.000000 -0.000000 -0.000000 -0.000000
  0C   2py        0.000000  0.227077 -0.234879 -0.000000  0.000000  0.000000
  0C   3pz        0.000000  2.836569  2.742339 -0.000000 -0.000000  0.000000
  0C   3px        0.000000 -0.000000 -0.000000 -0.000000 -0.000000  0.000000
  0C   3py       -0.000000 -2.742339  2.836569  0.000000 -0.000000  0.000000
  0C   1dz2      -0.015666 -0.000000 -0.000000 -0.013127  0.000000 -0.000000
  0C   1dxz       0.000000 -0.000000 -0.000000 -0.000000  0.018141  0.014843
  0C   1dyz       0.000000 -0.000000  0.000000  0.000000  0.000000  0.000000
  0C   1dx2y2     0.027135  0.000000  0.000000  0.022737 -0.000000  0.000000
  0C   1dxy       0.000000  0.000000 -0.000000  0.000000 -0.014843  0.018141
  0C   2dz2       0.261552 -0.000000 -0.000000 -0.200003  0.000000 -0.000000
  0C   2dxz      -0.000000  0.000000  0.000000  0.000000 -0.174874 -0.143085
  0C   2dyz      -0.000000  0.000000 -0.000000 -0.000000 -0.000000 -0.000000
  0C   2dx2y2    -0.453022  0.000000  0.000000  0.346416 -0.000000  0.000000
  0C   2dxy      -0.000000 -0.000000  0.000000 -0.000000  0.143085 -0.174874
  0C   1f0        0.000000  0.018638  0.018019 -0.000000  0.000000 -0.000000
  0C   1f+1      -0.000000  0.000000  0.000000 -0.000000  0.000000  0.000000
  0C   1f-1      -0.000000 -0.007365  0.007618  0.000000 -0.000000 -0.000000
  0C   1f+2      -0.000000 -0.024073 -0.023273  0.000000 -0.000000  0.000000
  0C   1f-2      -0.000000  0.000000  0.000000 -0.000000  0.000000 -0.000000
  0C   1f+3      -0.000000  0.000000  0.000000 -0.000000  0.000000  0.000000
  0C   1f-3      -0.000000 -0.028497  0.029476  0.000000 -0.000000 -0.000000
  0C   6s       -13.294968 -0.000000 -0.000000 -3.421422 -0.000000  0.000000
  0C   3dz2       1.341598  0.000000 -0.000000  1.583029  0.000000 -0.000000
  0C   3dxz      -0.000000  0.000000  0.000000  0.000000 -2.506732 -2.051049
  0C   3dyz      -0.000000 -0.000000  0.000000 -0.000000  0.000000  0.000000
  0C   3dx2y2    -2.323716 -0.000000  0.000000 -2.741887 -0.000000  0.000000
  0C   3dxy       0.000000 -0.000000  0.000000 -0.000000  2.051049 -2.506732
  1O   1s        -0.000342 -0.000000  0.000000 -0.013370 -0.000000  0.000000
  1O   2s        -0.000709 -0.000000  0.000000 -0.035533 -0.000000  0.000000
  1O   3s        -0.009936  0.000000  0.000000  0.121789 -0.000000 -0.000000
  1O   4s         0.073769 -0.000000 -0.000000 -0.220013  0.000000  0.000000
  1O   5s         2.758288  0.000000 -0.000000  0.358141  0.000000  0.000000
  1O   1pz        0.000000 -0.051940 -0.050214  0.000000  0.117651  0.096264
  1O   1px       -0.200499  0.000000 -0.000000 -0.016699  0.000000  0.000000
  1O   1py        0.000000  0.050214 -0.051940 -0.000000 -0.096264  0.117651
  1O   2pz        0.000000  0.031592  0.030542 -0.000000  0.044002  0.036003
  1O   2px       -0.329476 -0.000000  0.000000  0.087027 -0.000000 -0.000000
  1O   2py       -0.000000 -0.030542  0.031592  0.000000 -0.036003  0.044002
  1O   3pz        0.000000 -0.504319 -0.487566  0.000000  0.963744  0.788551
  1O   3px       -1.605637  0.000000  0.000000  1.676519 -0.000000 -0.000000
  1O   3py       -0.000000  0.487566 -0.504319 -0.000000 -0.788551  0.963744
  1O   1dz2       0.003778  0.000000  0.000000  0.002249  0.000000 -0.000000
  1O   1dxz       0.000000  0.006871  0.006643 -0.000000 -0.001150 -0.000941
  1O   1dyz      -0.000000  0.000000  0.000000 -0.000000 -0.000000 -0.000000
  1O   1dx2y2    -0.006543 -0.000000 -0.000000 -0.003895 -0.000000  0.000000
  1O   1dxy      -0.000000 -0.006643  0.006871  0.000000  0.000941 -0.001150
  1O   2dz2      -0.020136 -0.000000  0.000000  0.045641 -0.000000 -0.000000
  1O   2dxz      -0.000000 -0.017852 -0.017259  0.000000 -0.027658 -0.022630
  1O   2dyz       0.000000 -0.000000  0.000000  0.000000  0.000000  0.000000
  1O   2dx2y2     0.034877  0.000000 -0.000000 -0.079052  0.000000  0.000000
  1O   2dxy       0.000000  0.017259 -0.017852 -0.000000  0.022630 -0.027658
  1O   1f0       -0.000000 -0.000918 -0.000888 -0.000000 -0.002572 -0.002104
[...]
Dimension of the CPSCF-problem          ...   1166
Number of operators                     ...      1
Max. number of iterations               ...    128
Convergence Tolerance                   ... 1.0e-04
Number of perturbations                 ...      3
Perturbation type                       ... REAL

----------------------------
POPLE LINEAR EQUATION SOLVER
----------------------------

  ITERATION   0:   ||err||_max =   9.4315e+00 (   0.3 sec   0/  3 done)
  ITERATION   1:   ||err||_max =   1.9144e-01 (   0.3 sec   0/  3 done)
  ITERATION   2:   ||err||_max =   2.3462e-02 (   0.3 sec   0/  3 done)
  ITERATION   3:   ||err||_max =   2.2731e-03 (   0.3 sec   0/  3 done)
  ITERATION   4:   ||err||_max =   1.6651e-04 (   0.3 sec   2/  3 done)
  ITERATION   5:   ||err||_max =   7.1347e-05 (   0.2 sec   3/  3 done)

CP-SCF equations solved in   1.5 sec
Response densities calculated in   0.0 sec

Maximum memory used throughout the entire SCFRESP-calculation: 11.3 MB

------------------------------------------------------------------------------
                              ORCA PROPERTY CALCULATIONS
------------------------------------------------------------------------------

GBWName                                 ... co2_opt.gbw
Number of atoms                         ...      3
Number of basis functions               ...    117
Max core memory                         ...   2000 MB

Electric properties:
Dipole moment                           ... YES
Quadrupole moment                       ...  NO
Static polarizability (Dipole/Dipole)   ... YES
Static polarizability (Dipole/Quad.)    ...  NO
Static polarizability (Quad./Quad.)     ...  NO
Static polarizability (Velocity)        ...  NO

Atomic electric properties:
Dipole moment                           ...  NO
Quadrupole moment                       ...  NO
Static polarizability                   ...  NO

Choice of electric origin               ... Center of mass
Position of electric origin             ...     0.000000    -0.000000    -0.000000

General magnetic properties:
Magnetizability                         ...  NO

EPR properties:
g-Tensor (aka g-matrix)                 ...  NO
Zero-Field splitting spin-orbit         ...  NO
Zero-field splitting spin-spin          ...  NO
Hyperfine couplings                     ...  NO (   0 nuclei)
Quadrupole couplings                    ...  NO (   0 nuclei)
Contact density                         ...  NO (   0 nuclei)

NMR properties:
Chemical shifts                         ...  NO (   0 nuclei)
Spin-rotation constants                 ...  NO (   0 nuclei)
Spin-spin couplings                     ...  NO (   0 nuclei,    0 pairs)

Choice of magnetic origin               ... GIAO
Position of magnetic origin             ...     0.000000     0.000000     0.000000

Properties with geometric perturbations:
SCF Hessian                             ...  NO
IR spectrum                             ...  NO
VCD spectrum                            ...  NO
X-ray spectroscopy properties:
SCF XES/XAS/RIXS spectra                ...  NO


-------------
DIPOLE MOMENT
-------------

Method             : SCF
Type of density    : Electron Density
Multiplicity       :   1
Irrep              :   0
Energy             :  -188.5882075658338692 Eh
Relativity type    : 
Basis              : AO
                                X                 Y                 Z
Electronic contribution:     -0.000013482       0.000000053       0.000000039
Nuclear contribution   :      0.000000028      -0.000000000      -0.000000000
                        -----------------------------------------
Total Dipole Moment    :     -0.000013454       0.000000053       0.000000039
                        -----------------------------------------
Magnitude (a.u.)       :      0.000013454
Magnitude (Debye)      :      0.000034199



--------------------
Rotational spectrum 
--------------------
 
Rotational constants in cm-1:             0.000000             0.391496             0.391496 
Rotational constants in MHz :             0.000000         11736.743853         11736.743853 

Dipole components along the rotational axes: 
x,y,z [a.u.] :     0.000013    -0.000000    -0.000000 
x,y,z [Debye]:     0.000034    -0.000000    -0.000000 

 

Dipole moment calculation done in   0.0 sec 


---------------------------------------------------
STATIC POLARIZABILITY TENSOR (Dipole/Dipole)
---------------------------------------------------

Method             : SCF
Type of density    : Electron Density
Type of derivative : Electric Field (Direction=X)
Multiplicity       :   1
Irrep              :   0
Relativity type    : 
Basis              : AO

The raw cartesian tensor (atomic units):
      26.032224633        -0.000006068        -0.000006212  
      -0.000006068        12.902266695        -0.000000173  
      -0.000006212        -0.000000173        12.902267322  
diagonalized tensor: 
      12.902266651        12.902267367        26.032224633  

Orientation: 
       0.000000566         0.000000343        -1.000000000  
       0.968367764        -0.249527302         0.000000462  
       0.249527302         0.968367764         0.000000473  

Isotropic polarizability :  17.27892


Polarizability tensor calculation done in   0.0 sec 

Maximum memory used throughout the entire PROP-calculation: 7.4 MB

----------------------------------------------------------------------------
                           ORCA NUMERICAL FREQUENCIES
----------------------------------------------------------------------------

Number of atoms                ... 3
Central differences            ... used
Number of displacements        ... 18
Numerical increment            ... 5.000e-03 bohr
IR-spectrum generation         ... on
Raman-spectrum generation      ... on
Polarizability calculation     ... 1
Surface Crossing Hessian       ... off

The output will be reduced. Please look at the following files:
SCF program output             ... >co2_opt.lastscf
Integral program output        ... >co2_opt.lastint
Gradient program output        ... >co2_opt.lastgrad
Dipole moment program output   ... >co2_opt.lastmom

	<< Calculating gradient on displaced geometry   1 (of  18) >>
	<< Calculating gradient on displaced geometry   2 (of  18) >>
	<< Calculating gradient on displaced geometry   3 (of  18) >>
	<< Calculating gradient on displaced geometry   4 (of  18) >>
	<< Calculating gradient on displaced geometry   5 (of  18) >>
	<< Calculating gradient on displaced geometry   6 (of  18) >>
	<< Calculating gradient on displaced geometry   7 (of  18) >>
	<< Calculating gradient on displaced geometry   8 (of  18) >>
	<< Calculating gradient on displaced geometry   9 (of  18) >>
	<< Calculating gradient on displaced geometry  10 (of  18) >>
	<< Calculating gradient on displaced geometry  11 (of  18) >>
	<< Calculating gradient on displaced geometry  12 (of  18) >>
	<< Calculating gradient on displaced geometry  13 (of  18) >>
	<< Calculating gradient on displaced geometry  14 (of  18) >>
	<< Calculating gradient on displaced geometry  15 (of  18) >>
	<< Calculating gradient on displaced geometry  16 (of  18) >>
	<< Calculating gradient on displaced geometry  17 (of  18) >>
	<< Calculating gradient on displaced geometry  18 (of  18) >>

-----------------------
VIBRATIONAL FREQUENCIES
-----------------------

Scaling factor for frequencies =  1.000000000  (already applied!)

     0:       0.00 cm**-1
     1:       0.00 cm**-1
     2:       0.00 cm**-1
     3:       0.00 cm**-1
     4:       0.00 cm**-1
     5:     673.58 cm**-1
     6:     673.59 cm**-1
     7:    1371.72 cm**-1
     8:    2404.47 cm**-1


------------
NORMAL MODES
------------

These modes are the Cartesian displacements weighted by the diagonal matrix
M(i,i)=1/sqrt(m[i]) where m[i] is the mass of the displaced atom
Thus, these vectors are normalized but *not* orthogonal

                  0          1          2          3          4          5    
      0       0.000000   0.000000   0.000000   0.000000   0.000000  -0.000006
      1       0.000000   0.000000   0.000000   0.000000   0.000000  -0.479158
      2       0.000000   0.000000   0.000000   0.000000   0.000000  -0.741997
      3       0.000000   0.000000   0.000000   0.000000   0.000000   0.000023
      4       0.000000   0.000000   0.000000   0.000000   0.000000   0.179860
      5       0.000000   0.000000   0.000000   0.000000   0.000000   0.278521
      6       0.000000   0.000000   0.000000   0.000000   0.000000  -0.000019
      7       0.000000   0.000000   0.000000   0.000000   0.000000   0.179861
      8       0.000000   0.000000   0.000000   0.000000   0.000000   0.278522
                  6          7          8    
      0       0.000010   0.000019   0.883262
      1       0.741997  -0.000005  -0.000011
      2      -0.479158  -0.000036   0.000001
      3       0.000006  -0.707114  -0.331536
      4      -0.278521   0.000002   0.000004
      5       0.179860   0.000013  -0.000000
      6      -0.000014   0.707100  -0.331560
      7      -0.278522   0.000002   0.000004
      8       0.179861   0.000013  -0.000000


-----------
IR SPECTRUM
-----------

 Mode   freq       eps      Int      T**2         TX        TY        TZ
       cm**-1   L/(mol*cm) km/mol    a.u.
----------------------------------------------------------------------------
  5:    673.58   0.006004   30.34  0.002782  (-0.000001 -0.028611 -0.044305)
  6:    673.59   0.006004   30.34  0.002782  ( 0.000004  0.044305 -0.028611)
  7:   1371.72   0.000000    0.00  0.000000  ( 0.000002 -0.000001 -0.000002)
  8:   2404.47   0.133548  674.90  0.017332  ( 0.131653 -0.000001 -0.000000)

* The epsilon (eps) is given for a Dirac delta lineshape.
** The dipole moment derivative (T) already includes vibrational overlap.

--------------
RAMAN SPECTRUM  
--------------

 Mode    freq (cm**-1)   Activity   Depolarization
-------------------------------------------------------------------
   5:       673.58      0.000000      0.695024
   6:       673.59      0.000000      0.740869
   7:      1371.72     21.831457      0.102573
   8:      2404.47      0.000000      0.647699

The first frequency considered to be a vibration is 5
The total number of vibrations considered is 4


--------------------------
THERMOCHEMISTRY AT 298.15K
--------------------------

Temperature         ...   298.15 K
Pressure            ...     1.00 atm
Total Mass          ...    44.01 AMU
Quasi RRHO          ...     True
Cut-Off Frequency   ...     1.00 cm^-1
The molecule is recognized as being linear

Throughout the following assumptions are being made:
  (1) The electronic state is orbitally nondegenerate
  (2) There are no thermally accessible electronically excited states
  (3) Hindered rotations indicated by low frequency modes are not
      treated as such but are treated as vibrations and this may
      cause some error
  (4) All equations used are the standard statistical mechanics
      equations for an ideal gas
  (5) All vibrations are strictly harmonic

freq.     673.58  E(vib)   ...       0.08 
freq.     673.59  E(vib)   ...       0.08 
freq.    1371.72  E(vib)   ...       0.01 
freq.    2404.47  E(vib)   ...       0.00 

------------
INNER ENERGY
------------

The inner energy is: U= E(el) + E(ZPE) + E(vib) + E(rot) + E(trans)
    E(el)   - is the total energy from the electronic structure calculation
              = E(kin-el) + E(nuc-el) + E(el-el) + E(nuc-nuc)
    E(ZPE)  - the the zero temperature vibrational energy from the frequency calculation
    E(vib)  - the the finite temperature correction to E(ZPE) due to population
              of excited vibrational states
    E(rot)  - is the rotational thermal energy
    E(trans)- is the translational thermal energy

Summary of contributions to the inner energy U:
Electronic energy                ...   -188.58820757 Eh
Zero point energy                ...      0.01167188 Eh       7.32 kcal/mol
Thermal vibrational correction   ...      0.00025594 Eh       0.16 kcal/mol
Thermal rotational correction    ...      0.00094418 Eh       0.59 kcal/mol
Thermal translational correction ...      0.00141627 Eh       0.89 kcal/mol
-----------------------------------------------------------------------
Total thermal energy                   -188.57391930 Eh


Summary of corrections to the electronic energy:
(perhaps to be used in another calculation)
Total thermal correction                  0.00261640 Eh       1.64 kcal/mol
Non-thermal (ZPE) correction              0.01167188 Eh       7.32 kcal/mol
-----------------------------------------------------------------------
Total correction                          0.01428827 Eh       8.97 kcal/mol


--------
ENTHALPY
--------

The enthalpy is H = U + kB*T
                kB is Boltzmann's constant
Total thermal energy              ...   -188.57391930 Eh 
Thermal Enthalpy correction       ...      0.00094421 Eh       0.59 kcal/mol
-----------------------------------------------------------------------
Total Enthalpy                    ...   -188.57297509 Eh


Note: Rotational entropy computed according to Herzberg 
Infrared and Raman Spectra, Chapter V,1, Van Nostrand Reinhold, 1945 
Point Group:  D(inf)h, Symmetry Number:   1  
Rotational constants in cm-1:     0.000000     0.391496     0.391496 

Vibrational entropy computed according to the QRRHO of S. Grimme
Chem.Eur.J. 2012 18 9955 using a reference frequency of 100.0 cm-1


-------
ENTROPY
-------

The entropy contributions are T*S = T*(S(el)+S(vib)+S(rot)+S(trans))
     S(el)   - electronic entropy
     S(vib)  - vibrational entropy
     S(rot)  - rotational entropy
     S(trans)- translational entropy
The entropies will be listed as multiplied by the temperature to get
units of energy

Electronic entropy                ...      0.00000000 Eh      0.00 kcal/mol
Vibrational entropy               ...      0.00033214 Eh      0.21 kcal/mol
Rotational entropy                ...      0.00686570 Eh      4.31 kcal/mol
Translational entropy             ...      0.01770880 Eh     11.11 kcal/mol
-----------------------------------------------------------------------
Final entropy term                ...      0.02490664 Eh     15.63 kcal/mol


-------------------
GIBBS FREE ENERGY
-------------------

The Gibbs free energy is G = H - T*S

Total enthalpy                    ...   -188.57297509 Eh 
Total entropy correction          ...     -0.02490664 Eh    -15.63 kcal/mol
-----------------------------------------------------------------------
Final Gibbs free energy         ...   -188.59788172 Eh

For completeness - the Gibbs free energy minus the electronic energy
G-E(el)                           ...     -0.00967416 Eh     -6.07 kcal/mol



--------------------------------
SUGGESTED CITATIONS FOR THIS RUN
--------------------------------

Below you find a list of papers that are relevant to this ORCA run
We neither can nor want to force you to cite these papers, but we appreciate if you do
You receive ORCA, which is the product of decades of hard work by many enthusiastic individuals, for free
The only thing we kindly ask in return is that you cite our papers,
We deeply appreciate it, if you show your appreciation for ORCA by not just citing the generic ORCA reference.

Please note that relegating all ORCA citations to the supporting information does *not* help us.
SI sections are not indexed - citations you put there will not count into any citation statistics
But we need these citations in order to attract the funding resources that allow us to do what we are doing

Therefore, if you are a happy ORCA user, please consider citing a few of the papers listed below in the main body of your paper

In addition to the list printed below, the program has created the file co2_opt.bibtex that contains the list in bibtex format
You can import this file easily into all common literature databanks and citation aid programs


List of essential papers. We consider these as the minimum necessary citations

  1. Neese,F.
     Software update: the ORCA program system, version 5.0
     WIRES Comput. Molec. Sci., 2022 12(1)e1606
     doi.org/10.1002/wcms.1606

List of papers to cite with high priority. The work reported in these papers was absolutely
necessary for this run to complete.
Our perspective: the developers of density functionals and basis sets usually get cited in chemistry papers
Good! But without the algorithms to do something with them, the functionals or basis sets would not do anything.
Hence, in our opinion, the algorithm design and method developments papers are equally worthy of getting cited

  1. Neese,F.
     An improvement of the resolution of the identity approximation for the formation of the Coulomb matrix
     J. Comp. Chem., 2003 24(14)1740-1747
     doi.org/10.1002/jcc.10318
  2. Neese,F.; Wennmohs,F.; Hansen,A.; Becker,U.
     Efficient, approximate and parallel Hartree-Fock and hybrid DFT calculations. A 'chain-of-spheres' algorithm for the Hartree-Fock exchange
     Chem. Phys., 2009 356(1-3)98-109
     doi.org/10.1016/j.chemphys.2008.10.036
  3. Bykov,D.; Petrenko,T.; Izsak,R.; Kossmann,S.; Becker,U.; Valeev,E.; Neese,F.
     Efficient implementation of the analytic second derivatives of Hartree-Fock and hybrid DFT energies: a detailed analysis of different approximations
     Molec. Phys., 2015 113 1961-1977
     doi.org/10.1080/00268976.2015.1025114
  4. Helmich-Paris,B.; de Souza,B.; Neese,F.; Izsák,R.
     An improved chain of spheres for exchange algorithm
     J. Chem. Phys., 2021 155 104109
     doi.org/doi: 10.1063/5.0058766.
  5. Neese,F.
     The SHARK Integral Generation and Digestion System
     J. Comp. Chem., 2022  1-16
     doi.org/10.1002/jcc.26942

List of suggested additional citations. These are papers that are important in the 'surrounding' of 
of this run, or papers that preceded the highly important papers. If you like your results we are grateful for a citation.

  1. Izsak,R.; Neese,F.
     An overlap fitted chain of spheres exchange method
     J. Chem. Phys., 2011 135 144105
     doi.org/10.1063/1.3646921
  2. Izsak,R.; Hansen,A.; Neese,F.
     The resolution of identity and chain of spheres approximations for the LPNO-CCSD singles Fock term
     Molec. Phys., 2012 110 2413-2417
     doi.org/10.1080/00268976.2012.687466
  3. Neese,F.
     The ORCA program system
     WIRES Comput. Molec. Sci., 2012 2(1)73-78
     doi.org/10.1002/wcms.81
  4. Izsak,R.; Neese,F.; Klopper,W.
     Robust fitting techniques in the chain of spheres approximation to the Fock exchange: The role of the complementary space
     J. Chem. Phys., 2013 139 
     doi.org/10.1063/1.4819264
  5. Neese,F.
     Software update: the ORCA program system, version 4.0
     WIRES Comput. Molec. Sci., 2018 8(1)1-6
     doi.org/10.1002/wcms.1327
  6. Neese,F.; Wennmohs,F.; Becker,U.; Riplinger,C.
     The ORCA quantum chemistry program package
     J. Chem. Phys., 2020 152 Art. No. L224108
     doi.org/10.1063/5.0004608

List of optional additional citations

  1. Neese,F.
     Approximate second-order SCF convergence for spin unrestricted wavefunctions
     Chem. Phys. Lett., 2000 325(1-3)93-98
     doi.org/10.1016/s0009-2614(00)00662-x

Timings for individual modules:

Sum of individual times          ...      290.859 sec (=   4.848 min)
Startup calculation              ...        1.584 sec (=   0.026 min)   0.5 %
SCF iterations                   ...       30.678 sec (=   0.511 min)  10.5 %
SCF Response                     ...        1.598 sec (=   0.027 min)   0.5 %
Property calculations            ...        0.067 sec (=   0.001 min)   0.0 %
SCF Gradient evaluation          ...       27.971 sec (=   0.466 min)   9.6 %
Geometry relaxation              ...        0.007 sec (=   0.000 min)   0.0 %
Numerical frequency calculation  ...      228.954 sec (=   3.816 min)  78.7 %
                             ****ORCA TERMINATED NORMALLY****
TOTAL RUN TIME: 0 days 0 hours 4 minutes 42 seconds 316 msec
