
                                 *****************
                                 * O   R   C   A *
                                 *****************

                                            #,                                       
                                            ###                                      
                                            ####                                     
                                            #####                                    
                                            ######                                   
                                           ########,                                 
                                     ,,################,,,,,                         
                               ,,#################################,,                 
                          ,,##########################################,,             
                       ,#########################################, ''#####,          
                    ,#############################################,,   '####,        
                  ,##################################################,,,,####,       
                ,###########''''           ''''###############################       
              ,#####''   ,,,,##########,,,,          '''####'''          '####       
            ,##' ,,,,###########################,,,                        '##       
           ' ,,###''''                  '''############,,,                           
         ,,##''                                '''############,,,,        ,,,,,,###''
      ,#''                                            '''#######################'''  
     '                                                          ''''####''''         
             ,#######,   #######,   ,#######,      ##                                
            ,#'     '#,  ##    ##  ,#'     '#,    #''#        ,####,   ,####,        
            ##       ##  ##   ,#'  ##            #'  '#       #'       #'  '#        
            ##       ##  #######   ##           ,######,      #####,   #    #        
            '#,     ,#'  ##    ##  '#,     ,#' ,#      #,     #,   #   #,  ,#        
             '#######'   ##     ##  '#######'  #'      '#     '####' # '####'        



                #########################################################
                #                        -***-                          #
                #          Department of theory and spectroscopy        #
                #                                                       #
                #                      Frank Neese                      #
                #                                                       #
                #     Directorship, Architecture, Infrastructure        #
                #                    SHARK, DRIVERS                     #
                #        Core code/Algorithms in most modules           #
                #                                                       #
                #        Max Planck Institute fuer Kohlenforschung      #
                #                Kaiser Wilhelm Platz 1                 #
                #                 D-45470 Muelheim/Ruhr                 #
                #                      Germany                          #
                #                                                       #
                #                  All rights reserved                  #
                #                        -***-                          #
                #########################################################


                         Program Version 6.0.1  -  RELEASE   -


 With contributions from (in alphabetic order):
[Max-Planck-Institut fuer Kohlenforschung]                               
  Daniel Aravena         : Magnetic Suceptibility                        
  Michael Atanasov       : Ab Initio Ligand Field Theory (pilot matlab implementation)
  Alexander A. Auer      : GIAO ZORA, VPT2 properties, NMR spectrum      
  Ute Becker             : All parallelization in ORCA, NUMFREQ, NUMCALC 
  Giovanni Bistoni       : ED, misc. LED, open-shell LED, HFLD           
  Martin Brehm           : Molecular dynamics                            
  Dmytro Bykov           : pre 5.0 version of the SCF Hessian            
  Marcos Casanova-Páez   : Triplet and SCS-CIS(D). UHF-(DLPNO)-IP/EA/STEOM-CCSD. UHF-CVS-IP/STEOM-CCSD   
  Vijay G. Chilkuri      : MRCI spin determinant printing, contributions to CSF-ICE 
  Pauline Colinet        : FMM embedding                                 
  Dipayan Datta          : RHF DLPNO-CCSD density                        
  Achintya Kumar Dutta   : EOM-CC, STEOM-CC                              
  Nicolas Foglia         : Exact transition moments, OPA infrastructure, MCD improvements    
  Dmitry Ganyushin       : Spin-Orbit,Spin-Spin,Magnetic field MRCI      
  Miquel Garcia-Rates    : C-PCM and meta-GGA Hessian, CCSD/C-PCM, Gaussian charge scheme 
  Tiago L. C. Gouveia    : GS-ROHF, GS-ROCIS                             
  Yang Guo               : DLPNO-NEVPT2, F12-NEVPT2, CIM, IAO-localization        
  Andreas Hansen         : Spin unrestricted coupled pair/coupled cluster methods 
  Ingolf Harden          : AUTO-CI MPn and infrastructure                
  Benjamin Helmich-Paris : MC-RPA, TRAH-(SCF,CASSCF), AVAS, COSX integrals, SCF dyn. polar. 
  Lee Huntington         : MR-EOM, pCC                                   
  Robert Izsak           : Overlap fitted RIJCOSX, COSX-SCS-MP3, EOM     
  Riya Kayal             : Wick's Theorem for AUTO-CI, AUTO-CI UHF-CCSDT 
  Emily Kempfer          : AUTO-CI, RHF CISDT and CCSDT                  
  Christian Kollmar      : KDIIS, OOCD, Brueckner-CCSD(T), CCSD density, CASPT2, CASPT2-K, improved NEVPT2 
  Axel Koslowski         : Symmetry handling                             
  Simone Kossmann        : meta-GGA functionals, TD-DFT gradient, OOMP2, (MP2 Hessian; deprecated post 5.0) 
  Lucas Lang             : DCDCAS                                        
  Marvin Lechner         : AUTO-CI (C++ implementation), FIC-MRCC        
  Spencer Leger          : CASSCF response                               
  Dagmar Lenk            : GEPOL surface, SMD, ORCA-2-JSON               
  Dimitrios Liakos       : Extrapolation schemes; Compound Job, initial MDCI parallelization 
  Dimitrios Manganas     : Further ROCIS development; embedding schemes. LFT, Crystal Embedding 
  Dimitrios Pantazis     : SARC Basis sets                               
  Anastasios Papadopoulos: AUTO-CI, single reference methods and gradients 
  Taras Petrenko         : pre 6.0 DFT Hessian and TD-DFT gradient, (ASA, deprecated), ECA, 1-Electron XAS/XES, NRVS 
  Peter Pinski           : DLPNO-MP2, DLPNO-MP2 Gradient                 
  Christoph Reimann      : Effective Core Potentials                     
  Marius Retegan         : Local ZFS, SOC                                
  Christoph Riplinger    : Optimizer, TS searches, QM/MM, DLPNO-CCSD(T), (RO)-DLPNO pert. Triples 
  Michael Roemelt        : Original ROCIS implementation                 
  Masaaki Saitow         : Open-shell DLPNO-CCSD energy and density      
  Barbara Sandhoefer     : DKH picture change effects                    
  Kantharuban Sivalingam : CASSCF convergence/infrastructure, NEVPT2 and variants, FIC-MRCI 
  Bernardo de Souza      : ESD, SOC TD-DFT                               
  Georgi L. Stoychev     : AutoAux, RI-MP2 NMR, DLPNO-MP2 response, X2C  
  Van Anh Tran           : RI-MP2 g-tensors                              
  Willem Van den Heuvel  : Paramagnetic NMR                              
  Zikuan Wang            : NOTCH, Electric field optimization            
  Frank Wennmohs         : Technical directorship and infrastructure     
  Hang Xu                : AUTO-CI-Response properties                   
                                                                         
[FACCTs GmbH]                                                            
  Markus Bursch, Miquel Garcia-Rates, Christoph Riplinger, Bernardo de Souza, Georgi L. Stoychev 
                                                                 
  APM, Basis sets (HGBS, AHGBS, def-TZVP (Ac-Lr), def2-XVPD (La-Lu)), CI-OPT, improved COSX, DLPNO-Multilevel,           
  DOCKER, DRACO, updates on ESD, GOAT, IRC, LR-CPCM, MBIS, meta-GGA TD-DFT gradient, ML-optimized integration grids, 
  MM, NACMEs, nearIR, NEB, NEB-TS, NL-DFT gradient (VV10), 2- and 3-layer-ONIOM, interface openCOSMO-RS, QMMM,   
  Crystal-QMMM, SF, symmetry and pop. for TD-DFT, r2SCAN hybrids, SOLVATOR                                   
                                                                         
[Other institutions]                                                     
  V. Asgeirsson          : NEB                                           
  Christoph Bannwarth    : sTDA-DFT, sTD-DFT, PBEh-3c, B97-3c, D3        
  Sebastian Ehlert       : rSCAN, r2SCAN, r2SCAN-3c, D4, dhf basis sets  
  Marvin Friede          : D4 for Fr, Ra, Ac-Lr                          
  Lars Goerigk           : TD-DFT with DH, B97 family of functionals     
  Stefan Grimme          : VdW corrections, initial TS optimization, DFT functionals, gCP, sTDA/sTD-DF 
  Waldemar Hujo          : DFT-NL                                        
  H. Jonsson             : NEB                                           
  Holger Kruse           : gCP                                           
  Marcel Mueller         : wB97X-3c, vDZP basis set                      
  Hagen Neugebauer       : wr2SCAN                                       
  Tobias Risthaus        : range-separated hybrid DFT                    
  Lukas Wittmann         : regularized MP2, r2SCAN double-hybrids, wr2SCAN        
                                                                         
We gratefully acknowledge several colleagues who have allowed us to      
interface, adapt or use parts of their codes:                            
  Ed Valeev, F. Pavosevic, A. Kumar             : LibInt (2-el integral package), F12 methods 
  Garnet Chan, S. Sharma, J. Yang, R. Olivares  : DMRG                   
  Ulf Ekstrom                                   : XCFun DFT Library      
  Mihaly Kallay                                 : mrcc  (arbitrary order and MRCC methods)
  Frank Weinhold                                : gennbo (NPA and NBO analysis)           
  Simon Mueller                                 : openCOSMO-RS                            
  Christopher J. Cramer and Donald G. Truhlar   : smd solvation model                     
  S Lehtola, MJT Oliveira, MAL Marques          : LibXC Library                           
  Liviu Ungur et al                             : ANISO software                          


 Your calculation uses the libint2 library for the computation of 2-el integrals
 For citations please refer to: http://libint.valeyev.net

 Your ORCA version has been built with support for libXC version: 6.2.2
 For citations please refer to: https://libxc.gitlab.io

 This ORCA versions uses:
   CBLAS   interface :  Fast vector & matrix operations
   LAPACKE interface :  Fast linear algebra routines
   SCALAPACK package :  Parallel linear algebra routines
   Shared memory     :  Shared parallel matrices
   BLAS/LAPACK       :  OpenBLAS 0.3.27  USE64BITINT DYNAMIC_ARCH NO_AFFINITY SkylakeX SINGLE_THREADED
        Core in use  :  SkylakeX
   Copyright (c) 2011-2014, The OpenBLAS Project


NOTE: MaxCore=2000 MB was set to SCF,MP2,MDCI,CIPSI,MRCI and CIS
      => If you want to overwrite this, your respective input block should be placed after the MaxCore statement
Warning: RI is on but no J-basis has been assigned. Assigning Def2/J (nothing to worry about!)
================================================================================

----- Orbital basis set information -----
Your calculation utilizes the basis: def2-TZVP
   F. Weigend and R. Ahlrichs, Phys. Chem. Chem. Phys. 7, 3297 (2005).

----- AuxJ basis set information -----
Your calculation utilizes the auxiliary basis: def2/J
   F. Weigend, Phys. Chem. Chem. Phys. 8, 1057 (2006).

================================================================================
                                        WARNINGS
                       Please study these warnings very carefully!
================================================================================

WARNING: Old DensityContainer found on disk!
         Will remove this file - 
         If you want to keep old densities, please start your calculation with a different basename. 


WARNING: Geometry Optimization
  ===> : Switching off AutoStart
         For restart on a previous wavefunction, please use MOREAD

================================================================================
                                       INPUT FILE
================================================================================
NAME = co2_opt.inp
|  1> ! B3LYP def2-TZVP Opt Freq TightSCF
|  2> %maxcore 2000
|  3> %geom
|  4> Calc_Hess true
|  5> Recalc_Hess 5
|  6> end
|  7> %output
|  8>   PrintLevel 5
|  9> end
| 10> * xyz 0 1
| 11> C    0.000000    0.000000    0.000000
| 12> O    1.200000    0.000000    0.000000
| 13> O   -1.200000    0.000000    0.000000
| 14> *
| 15> 
| 16> 
| 17>                          ****END OF INPUT****
================================================================================

                       *****************************
                       * Geometry Optimization Run *
                       *****************************

Geometry optimization settings:
Update method            Update   .... BFGS
Choice of coordinates    CoordSys .... (2022) Redundant Internals
Initial Hessian          InHess   .... Almloef's Model
Max. no of cycles        MaxIter  .... 50

Convergence Tolerances:
Energy Change            TolE     ....  5.0000e-06 Eh
Max. Gradient            TolMAXG  ....  3.0000e-04 Eh/bohr
RMS Gradient             TolRMSG  ....  1.0000e-04 Eh/bohr
Max. Displacement        TolMAXD  ....  4.0000e-03 bohr
RMS Displacement         TolRMSD  ....  2.0000e-03 bohr
Strict Convergence                .... False

------------------------------------------------------------------------------
                        ORCA OPTIMIZATION COORDINATE SETUP
------------------------------------------------------------------------------

The optimization will be done in redundant internal coordinates (2022)
Making redundant internal coordinates   ...  (2022 redundants) done
Evaluating the initial hessian          ...  (Is done on the fly) done
Evaluating the coordinates              ...  done
Calculating the B-matrix                .... done
Calculating the G-matrix                .... done
Diagonalizing the G-matrix              .... done
The first mode is                       ....    0
The number of degrees of freedom        ....    4

    -----------------------------------------------------------------
                    Redundant Internal Coordinates


    -----------------------------------------------------------------
         Definition                    Initial Value    d2E/dq (diagonal element)
    -----------------------------------------------------------------
      1. B(O   1,C   0)                  1.2000         0.000000   
      2. B(O   2,C   0)                  1.2000         0.000000   
      3. L(O   1,C   0,O   2, 2)       180.0000         0.000000   
      4. L(O   1,C   0,O   2, 1)       180.0000         0.000000   
    -----------------------------------------------------------------

Number of atoms                         .... 3
Number of degrees of freedom            .... 4


         *************************************************************
         *                GEOMETRY OPTIMIZATION CYCLE   1            *
         *************************************************************
---------------------------------
CARTESIAN COORDINATES (ANGSTROEM)
---------------------------------
  C      0.000000    0.000000    0.000000
  O      1.200000    0.000000    0.000000
  O     -1.200000    0.000000    0.000000

----------------------------
CARTESIAN COORDINATES (A.U.)
----------------------------
  NO LB      ZA    FRAG     MASS         X           Y           Z
   0 C     6.0000    0    12.011    0.000000    0.000000    0.000000
   1 O     8.0000    0    15.999    2.267671    0.000000    0.000000
   2 O     8.0000    0    15.999   -2.267671    0.000000    0.000000

--------------------------------
INTERNAL COORDINATES (ANGSTROEM)
--------------------------------
 C      0   0   0     0.000000000000     0.00000000     0.00000000
 O      1   0   0     1.200000000000     0.00000000     0.00000000
 O      1   2   0     1.200000000000   180.00000000     0.00000000

---------------------------
INTERNAL COORDINATES (A.U.)
---------------------------
 C      0   0   0     0.000000000000     0.00000000     0.00000000
 O      1   0   0     2.267671360706     0.00000000     0.00000000
 O      1   2   0     2.267671360706   180.00000000     0.00000000

---------------------
BASIS SET INFORMATION
---------------------
There are 2 groups of distinct atoms

 Group   1 Type C   : 11s6p2d1f contracted to 5s3p2d1f pattern {62111/411/11/1}
 Group   2 Type O   : 11s6p2d1f contracted to 5s3p2d1f pattern {62111/411/11/1}

Atom   0C    basis set group =>   1
Atom   1O    basis set group =>   2
Atom   2O    basis set group =>   2

-------------------------
BASIS SET IN INPUT FORMAT
-------------------------

 # Basis set for element : C 
 NewGTO C 
 S 6 
   1   13575.3496820000      0.0006064549
   2    2035.2333680000      0.0046979088
   3     463.2256235900      0.0243324776
   4     131.2001959800      0.0973999683
   5      42.8530158910      0.3019558425
   6      15.5841857660      0.6623360915
 S 2 
   1       6.2067138508      0.6559530854
   2       2.5764896527      0.3758563329
 S 1 
   1       0.5769633942      1.0000000000
 S 1 
   1       0.2297283136      1.0000000000
 S 1 
   1       0.0951644400      1.0000000000
 P 4 
   1      34.6972322440      0.0113272200
   2       7.9582622826      0.0761696592
   3       2.3780826883      0.3019225220
   4       0.8143320818      0.7278502735
 P 1 
   1       0.2888754725      1.0000000000
 P 1 
   1       0.1005682367      1.0000000000
 D 1 
   1       1.0970000000      1.0000000000
 D 1 
   1       0.3180000000      1.0000000000
 F 1 
   1       0.7610000000      1.0000000000
  end;

 # Basis set for element : O 
 NewGTO O 
 S 6 
   1   27032.3826310000      0.0005722733
   2    4052.3871392000      0.0044353233
   3     922.3272271000      0.0230201076
   4     261.2407098900      0.0928224906
   5      85.3546413510      0.2937850002
   6      31.0350352450      0.6740160450
 S 2 
   1      12.2608607280      0.6383993702
   2       4.9987076005      0.3953458713
 S 1 
   1       1.1703108158      1.0000000000
 S 1 
   1       0.4647474099      1.0000000000
 S 1 
   1       0.1850453636      1.0000000000
 P 4 
   1      63.2749548010      0.0120183321
   2      14.6270493790      0.0830054217
   3       4.4501223456      0.3199174393
   4       1.5275799647      0.7071554292
 P 1 
   1       0.5293511794      1.0000000000
 P 1 
   1       0.1747842127      1.0000000000
 D 1 
   1       2.3140000000      1.0000000000
 D 1 
   1       0.6450000000      1.0000000000
 F 1 
   1       1.4280000000      1.0000000000
  end;

---------------------------------
AUXILIARY/J BASIS SET INFORMATION
---------------------------------
There are 2 groups of distinct atoms

 Group   1 Type C   : 12s5p4d2f1g contracted to 6s4p3d1f1g pattern {711111/2111/211/2/1}
 Group   2 Type O   : 12s5p4d2f1g contracted to 6s4p3d1f1g pattern {711111/2111/211/2/1}

Atom   0C    basis set group =>   1
Atom   1O    basis set group =>   2
Atom   2O    basis set group =>   2

-------------------------------------
AUXILIARY/J BASIS SET IN INPUT FORMAT
-------------------------------------

 # Auxiliary/J basis set for element : C 
 NewAuxJGTO C 
 S 7 
   1    1861.0916331000      0.0134602335
   2     642.9939764000      0.0299160374
   3     235.1105725000      0.1008649584
   4      90.7028894000      0.2370970548
   5      36.7794552000      0.3924037254
   6      15.6046273000      0.3195862154
   7       6.8907294000      0.0530104441
 S 1 
   1       3.1478850000     -1.0000000000
 S 1 
   1       1.4777287000      1.0000000000
 S 1 
   1       0.7076466000      1.0000000000
 S 1 
   1       0.3430122000      1.0000000000
 S 1 
   1       0.1669453000      1.0000000000
 P 2 
   1      13.5472892000     -0.6769313712
   2       5.4669419000     -0.3779500978
 P 1 
   1       2.1751721000      1.0000000000
 P 1 
   1       0.8582194000      1.0000000000
 P 1 
   1       0.3376720000      1.0000000000
 D 2 
   1       5.9287253000     -0.3533329857
   2       1.9809209000     -0.7456525731
 D 1 
   1       0.8055417000     -1.0000000000
 D 1 
   1       0.3531244000     -1.0000000000
 F 2 
   1       1.6755626000      0.6311076882
   2       0.5997536000      0.4968166032
 G 1 
   1       1.0024600000     -1.0000000000
  end;

 # Auxiliary/J basis set for element : O 
 NewAuxJGTO O 
 S 7 
   1    2876.8216605000      0.0168151159
   2    1004.7443032000      0.0340137548
   3     369.7579954000      0.1194951309
   4     142.9442404000      0.2664627624
   5      57.8366425000      0.4202764046
   6      24.3864983000      0.2765077335
   7      10.6622662000      0.0057008815
 S 1 
   1       4.8070437000     -1.0000000000
 S 1 
   1       2.2210770000      1.0000000000
 S 1 
   1       1.0447795000      1.0000000000
 S 1 
   1       0.4968425000      1.0000000000
 S 1 
   1       0.2371384000      1.0000000000
 P 2 
   1      64.2613382000     -0.2731534179
   2      16.3006076000     -0.8168011598
 P 1 
   1       4.3550542000      1.0000000000
 P 1 
   1       1.2019554000      1.0000000000
 P 1 
   1       0.3354196000      1.0000000000
 D 2 
   1       9.2146611000     -0.4661230638
   2       2.8435251000     -0.6600908911
 D 1 
   1       0.9955759000     -1.0000000000
 D 1 
   1       0.3649441000     -1.0000000000
 F 2 
   1       2.6420115000      0.5931563945
   2       0.7345613000      0.5931563945
 G 1 
   1       1.3931000000     -1.0000000000
  end;

------------------------------------------------------------------------------
                             ORCA STARTUP CALCULATIONS
                           -- RI-GTO INTEGRALS CHOSEN --
------------------------------------------------------------------------------
------------------------------------------------------------------------------
                   ___                                                        
                  /   \      - P O W E R E D   B Y -                         
                 /     \                                                     
                 |  |  |   _    _      __       _____    __    __             
                 |  |  |  | |  | |    /  \     |  _  \  |  |  /  |          
                  \  \/   | |  | |   /    \    | | | |  |  | /  /          
                 / \  \   | |__| |  /  /\  \   | |_| |  |  |/  /          
                |  |  |   |  __  | /  /__\  \  |    /   |      \           
                |  |  |   | |  | | |   __   |  |    \   |  |\   \          
                \     /   | |  | | |  |  |  |  | |\  \  |  | \   \       
                 \___/    |_|  |_| |__|  |__|  |_| \__\ |__|  \__/        
                                                                              
                      - O R C A' S   B I G   F R I E N D -                    
                                      &                                       
                       - I N T E G R A L  F E E D E R -                       
                                                                              
 v1 FN, 2020, v2 2021, v3 2022-2024                                           
------------------------------------------------------------------------------


----------------------
SHARK INTEGRAL PACKAGE
----------------------

Number of atoms                             ...      3
Number of basis functions                   ...     93
Number of shells                            ...     33
Maximum angular momentum                    ...      3
Integral batch strategy                     ... SHARK/LIBINT Hybrid
RI-J (if used) integral strategy            ... SPLIT-RIJ (Revised 2003 algorithm where possible)
Printlevel                                  ...      1
Contraction scheme used                     ... SEGMENTED contraction
Prescreening option                         ... SCHWARTZ
   Thresh                                   ... 2.500e-11
   Tcut                                     ... 2.500e-12
   Tpresel                                  ... 2.500e-12 
Coulomb Range Separation                    ... NOT USED
Exchange Range Separation                   ... NOT USED
Multipole approximations                    ... NOT USED
Finite Nucleus Model                        ... NOT USED
CABS basis                                  ... NOT available
Auxiliary Coulomb fitting basis             ... AVAILABLE
   # of basis functions in Aux-J            ...    147
   # of shells in Aux-J                     ...     45
   Maximum angular momentum in Aux-J        ...      4
Auxiliary J/K fitting basis                 ... NOT available
Auxiliary Correlation fitting basis         ... NOT available
Auxiliary 'external' fitting basis          ... NOT available

Checking pre-screening integrals            ... done (  0.0 sec) Dimension = 33
Check shell pair data                       ... done (  0.0 sec)
Shell pair information
Shell pair cut-off parameter TPreSel        ...   2.5e-12
Total number of shell pairs                 ...       561
Shell pairs after pre-screening             ...       549
Total number of primitive shell pairs       ...      1896
Primitive shell pairs kept                  ...      1597
          la=0 lb=0:    114 shell pairs
          la=1 lb=0:    133 shell pairs
          la=1 lb=1:     45 shell pairs
          la=2 lb=0:     86 shell pairs
          la=2 lb=1:     54 shell pairs
          la=2 lb=2:     21 shell pairs
          la=3 lb=0:     45 shell pairs
          la=3 lb=1:     27 shell pairs
          la=3 lb=2:     18 shell pairs
          la=3 lb=3:      6 shell pairs

Calculating one electron integrals          ... done (  0.0 sec)
Calculating RI/J V-Matrix + Cholesky decomp.... done (  0.0 sec)
Calculating Nuclear repulsion               ... done (  0.0 sec) ENN=     56.445568885333 Eh

Diagonalization of the overlap matrix:
Smallest eigenvalue                        ... 6.130e-04
Time for diagonalization                   ...    0.001 sec
Threshold for overlap eigenvalues          ... 1.000e-07
Number of eigenvalues below threshold      ... 0
Time for construction of square roots      ...    0.000 sec
Total time needed                          ...    0.002 sec

-------------------
DFT GRID GENERATION
-------------------

General Integration Accuracy     IntAcc      ... 4.388
Radial Grid Type                 RadialGrid  ... OptM3 with GC (2021)
Angular Grid (max. ang.)         AngularGrid ... 4 (Lebedev-302)
Angular grid pruning method      GridPruning ... 4 (adaptive)
Weight generation scheme         WeightScheme... mBecke (2022)
Basis function cutoff            BFCut       ... 1.0000e-11
Integration weight cutoff        WCut        ... 1.0000e-14
Partially contracted basis set               ... off
Rotationally invariant grid construction     ... off
Angular grids for H and He will be reduced by one unit

Total number of grid points                  ...    18362
Total number of batches                      ...      289
Average number of points per batch           ...       63
Average number of grid points per atom       ...     6121

--------------------
COSX GRID GENERATION
--------------------

GRIDX 1
-------
General Integration Accuracy     IntAcc      ... 3.816
Radial Grid Type                 RadialGrid  ... OptM3 with GC (2021)
Angular Grid (max. ang.)         AngularGrid ... 1 (Lebedev-50)
Angular grid pruning method      GridPruning ... 4 (adaptive)
Weight generation scheme         WeightScheme... mBecke (2022)
Basis function cutoff            BFCut       ... 1.0000e-11
Integration weight cutoff        WCut        ... 1.0000e-14
Partially contracted basis set               ... on
Rotationally invariant grid construction     ... off
Angular grids for H and He will be reduced by one unit

Total number of grid points                  ...     2292
Total number of batches                      ...       20
Average number of points per batch           ...      114
Average number of grid points per atom       ...      764
UseSFitting                                  ... on

GRIDX 2
-------
General Integration Accuracy     IntAcc      ... 4.020
Radial Grid Type                 RadialGrid  ... OptM3 with GC (2021)
Angular Grid (max. ang.)         AngularGrid ... 2 (Lebedev-110)
Angular grid pruning method      GridPruning ... 4 (adaptive)
Weight generation scheme         WeightScheme... mBecke (2022)
Basis function cutoff            BFCut       ... 1.0000e-11
Integration weight cutoff        WCut        ... 1.0000e-14
Partially contracted basis set               ... on
Rotationally invariant grid construction     ... off
Angular grids for H and He will be reduced by one unit

Total number of grid points                  ...     5632
Total number of batches                      ...       45
Average number of points per batch           ...      125
Average number of grid points per atom       ...     1877
UseSFitting                                  ... on

GRIDX 3
-------
General Integration Accuracy     IntAcc      ... 4.338
Radial Grid Type                 RadialGrid  ... OptM3 with GC (2021)
Angular Grid (max. ang.)         AngularGrid ... 3 (Lebedev-194)
Angular grid pruning method      GridPruning ... 4 (adaptive)
Weight generation scheme         WeightScheme... mBecke (2022)
Basis function cutoff            BFCut       ... 1.0000e-11
Integration weight cutoff        WCut        ... 1.0000e-14
Partially contracted basis set               ... on
Rotationally invariant grid construction     ... off
Angular grids for H and He will be reduced by one unit

Total number of grid points                  ...    12570
Total number of batches                      ...       99
Average number of points per batch           ...      126
Average number of grid points per atom       ...     4190
UseSFitting                                  ... on
Initializing property integral containers    ... done (  0.0 sec)

SHARK setup successfully completed in   0.2 seconds

Maximum memory used throughout the entire STARTUP-calculation: 13.7 MB
-------------------------------------------------------------------------------
                                 ORCA GUESS
                   Start orbitals & Density for SCF / CASSCF
-------------------------------------------------------------------------------

------------
SCF SETTINGS
------------
Hamiltonian:
 Density Functional     Method          .... DFT(GTOs)
 Exchange Functional    Exchange        .... B88
   X-Alpha parameter    XAlpha          ....  0.666667
   Becke's b parameter  XBeta           ....  0.004200
 Correlation Functional Correlation     .... LYP
 LDA part of GGA corr.  LDAOpt          .... VWN-5
 Gradients option       PostSCFGGA      .... off
 Hybrid DFT is turned on
   Fraction HF Exchange ScalHFX         ....  0.200000
   Scaling of DF-GGA-X  ScalDFX         ....  0.720000
   Scaling of DF-GGA-C  ScalDFC         ....  0.810000
   Scaling of DF-LDA-C  ScalLDAC        ....  1.000000
   Perturbative correction              ....  0.000000
   NL short-range parameter             ....  4.800000
 RI-approximation to the Coulomb term is turned on
   Number of AuxJ basis functions       .... 147
   RIJ-COSX (HFX calculated with COS-X)).... on


General Settings:
 Integral files         IntName         .... co2_opt
 Hartree-Fock type      HFTyp           .... RHF
 Total Charge           Charge          ....    0
 Multiplicity           Mult            ....    1
 Number of Electrons    NEL             ....   22
 Basis Dimension        Dim             ....   93
 Nuclear Repulsion      ENuc            ....     56.4455688853 Eh

Convergence Acceleration:
 AO-DIIS                CNVDIIS         .... on
   Start iteration      DIISMaxIt       ....    12
   Startup error        DIISStart       ....  0.200000
   # of expansion vecs  DIISMaxEq       ....     5
   Bias factor          DIISBfac        ....   1.050
   Max. coefficient     DIISMaxC        ....  10.000
 MO-DIIS                CNVKDIIS        .... off
 Trust-Rad. Augm. Hess. CNVTRAH         .... auto
   Auto Start mean grad. ratio tolernc. ....  1.125000
   Auto Start start iteration           ....    50
   Auto Start num. interpolation iter.  ....    10
   Max. Number of Micro iterations      ....    24
   Max. Number of Macro iterations      .... Maxiter - #DIIS iter
   Number of Davidson start vectors     ....     2
   Converg. threshold    (grad. norm)   ....   1.000e-05
   Grad. Scal. Fac. for Micro threshold ....   0.100
   Minimum threshold for Micro iter.    ....   1.000e-02
   NR start threshold (gradient norm)   ....   1.000e-04
   Initial trust radius                 ....   0.400
   Minimum AH scaling param. (alpha)    ....   1.000
   Maximum AH scaling param. (alpha)    .... 1000.000
   Quad. conv. algorithm                .... NR
   White noise on init. David. guess    .... on
   Maximum white noise                  ....   0.010
   Pseudo random numbers                .... off
   Inactive MOs                         .... canonical
   Orbital update algorithm             .... Taylor
   Preconditioner                       .... Diag
   Full preconditioner red. dimension   ....   250
 SOSCF                  CNVSOSCF        .... on
   Start iteration      SOSCFMaxIt      ....   150
   Startup grad/error   SOSCFStart      ....  0.003300
   Hessian update       SOSCFHessUp     .... L-BFGS
 Level Shifting         CNVShift        .... on
   Level shift para.    LevelShift      ....    0.2500
   Turn off err/grad.   ShiftErr        ....    0.0010
 Zerner damping         CNVZerner       .... off
 Static damping         CNVDamp         .... on
   Fraction old density DampFac         ....    0.7000
   Max. Damping (<1)    DampMax         ....    0.9800
   Min. Damping (>=0)   DampMin         ....    0.0000
   Turn off err/grad.   DampErr         ....    0.1000

SCF Procedure:
 Maximum # iterations   MaxIter         ....   125
 SCF integral mode      SCFMode         .... Direct
   Integral package                     .... SHARK and LIBINT hybrid scheme
 Reset frequency        DirectResetFreq ....    20
 Integral Threshold     Thresh          ....  2.500e-11 Eh
 Primitive CutOff       TCut            ....  2.500e-12 Eh

Convergence Tolerance:
 Convergence Check Mode ConvCheckMode   .... Total+1el-Energy
 Convergence forced     ConvForced      .... 0
 Energy Change          TolE            ....  1.000e-08 Eh
 1-El. energy change                    ....  1.000e-05 Eh
 Orbital Gradient       TolG            ....  1.000e-05
 Orbital Rotation angle TolX            ....  1.000e-05
 DIIS Error             TolErr          ....  5.000e-07

------------------------------
INITIAL GUESS: MODEL POTENTIAL
------------------------------
Loading Hartree-Fock densities                     ... done
Calculating cut-offs                               ... done
Initializing the effective Hamiltonian             ... done
Setting up the integral package (SHARK)            ... done
Starting the Coulomb interaction                   ... done (   0.0 sec)
Making the grid                                    ... done (   0.0 sec)
Mapping shells                                     ... done
Starting the XC term evaluation                    ... done (   0.0 sec)
  promolecular density results
     # of electrons  =     22.000167588
     EX              =    -21.472339553
     EC              =     -0.784628340
     EX+EC           =    -22.256967893
Transforming the Hamiltonian                       ... done (   0.0 sec)
Diagonalizing the Hamiltonian                      ... done (   0.0 sec)
Back transforming the eigenvectors                 ... done (   0.0 sec)
Now organizing SCF variables                       ... done
                      ------------------
                      INITIAL GUESS DONE (   0.0 sec)
                      ------------------
----------------------
INITIAL GUESS ORBITALS
----------------------
                      0         1         2         3         4         5   
                 -18.99672 -18.99671 -10.08565  -1.10053  -1.07517  -0.57480
                   2.00000   2.00000   2.00000   2.00000   2.00000   2.00000
                  --------  --------  --------  --------  --------  --------
  0C   1s        -0.000056 -0.000000  0.467401  0.068271  0.000000  0.067447
  0C   2s         0.000310  0.000000  0.605999  0.140734  0.000000  0.143716
  0C   3s         0.005681  0.000000  0.046829 -0.249516  0.000000 -0.267314
  0C   4s        -0.037236 -0.000000 -0.018150 -0.056901 -0.000000 -0.208486
  0C   5s         0.002389  0.000000  0.003464 -0.001614 -0.000000 -0.009689
  0C   1pz       -0.000000  0.000000  0.000000  0.000000  0.000000  0.000000
  0C   1px        0.000000 -0.001268  0.000000 -0.000000  0.227116  0.000000
  0C   1py        0.000000 -0.000000 -0.000000 -0.000000 -0.000000  0.000000
  0C   2pz        0.000000 -0.000000 -0.000000 -0.000000 -0.000000  0.000000
  0C   2px       -0.000000  0.001219  0.000000  0.000000  0.109010  0.000000
  0C   2py       -0.000000  0.000000  0.000000  0.000000  0.000000 -0.000000
  0C   3pz        0.000000  0.000000 -0.000000  0.000000  0.000000  0.000000
  0C   3px       -0.000000  0.007103  0.000000  0.000000  0.001030  0.000000
  0C   3py        0.000000 -0.000000 -0.000000 -0.000000 -0.000000  0.000000
  0C   1dz2       0.000724  0.000000 -0.003326  0.015716  0.000000  0.008982
  0C   1dxz       0.000000  0.000000 -0.000000  0.000000 -0.000000  0.000000
  0C   1dyz      -0.000000  0.000000  0.000000  0.000000  0.000000 -0.000000
  0C   1dx2y2    -0.001255 -0.000000  0.005761 -0.027220 -0.000000 -0.015557
  0C   1dxy       0.000000  0.000000 -0.000000 -0.000000  0.000000  0.000000
  0C   2dz2       0.008447  0.000000 -0.000707 -0.004954  0.000000 -0.002284
  0C   2dxz      -0.000000 -0.000000 -0.000000 -0.000000 -0.000000 -0.000000
  0C   2dyz       0.000000 -0.000000 -0.000000 -0.000000 -0.000000  0.000000
  0C   2dx2y2    -0.014631 -0.000000  0.001224  0.008580 -0.000000  0.003956
  0C   2dxy       0.000000 -0.000000 -0.000000  0.000000 -0.000000  0.000000
  0C   1f0       -0.000000  0.000000  0.000000  0.000000 -0.000000 -0.000000
  0C   1f+1       0.000000 -0.001017 -0.000000 -0.000000 -0.011784 -0.000000
  0C   1f-1       0.000000 -0.000000 -0.000000 -0.000000 -0.000000  0.000000
  0C   1f+2       0.000000 -0.000000 -0.000000 -0.000000  0.000000  0.000000
  0C   1f-2       0.000000  0.000000  0.000000 -0.000000  0.000000  0.000000
  0C   1f+3       0.000000 -0.001312 -0.000000 -0.000000 -0.015213 -0.000000
  0C   1f-3       0.000000 -0.000000 -0.000000 -0.000000 -0.000000  0.000000
  1O   1s        -0.308025 -0.308012 -0.000058  0.066181 -0.070671 -0.040674
  1O   2s        -0.451355 -0.451455 -0.000326  0.154460 -0.164979 -0.095831
  1O   3s        -0.029273 -0.026753  0.004069 -0.235181  0.255058  0.150000
  1O   4s         0.034153  0.017859 -0.009631 -0.298677  0.284905  0.215621
  1O   5s        -0.000019 -0.013753  0.002523 -0.093032  0.074574  0.146911
  1O   1pz       -0.000000 -0.000000  0.000000 -0.000000  0.000000  0.000000
  1O   1px        0.001910  0.001388 -0.001032  0.094725 -0.096643  0.269471
  1O   1py       -0.000000  0.000000 -0.000000  0.000000 -0.000000 -0.000000
  1O   2pz        0.000000  0.000000 -0.000000  0.000000  0.000000  0.000000
  1O   2px       -0.010529 -0.000904  0.007993  0.073596 -0.053621  0.189842
  1O   2py        0.000000 -0.000000  0.000000 -0.000000 -0.000000  0.000000
  1O   3pz       -0.000000  0.000000  0.000000 -0.000000 -0.000000 -0.000000
  1O   3px       -0.001412  0.001584 -0.002085  0.012784 -0.000830  0.083692
  1O   3py       -0.000000 -0.000000 -0.000000  0.000000  0.000000 -0.000000
  1O   1dz2       0.000121  0.000215 -0.000067  0.002862 -0.002840  0.003331
  1O   1dxz       0.000000  0.000000  0.000000  0.000000  0.000000 -0.000000
  1O   1dyz       0.000000  0.000000 -0.000000 -0.000000  0.000000  0.000000
  1O   1dx2y2    -0.000210 -0.000373  0.000115 -0.004957  0.004918 -0.005770
  1O   1dxy      -0.000000 -0.000000 -0.000000 -0.000000  0.000000  0.000000
  1O   2dz2      -0.001009 -0.000211  0.002347  0.005403 -0.003538  0.004508
  1O   2dxz      -0.000000 -0.000000 -0.000000 -0.000000 -0.000000  0.000000
  1O   2dyz      -0.000000 -0.000000  0.000000  0.000000 -0.000000 -0.000000
  1O   2dx2y2     0.001748  0.000365 -0.004064 -0.009359  0.006128 -0.007808
  1O   2dxy       0.000000  0.000000  0.000000  0.000000 -0.000000 -0.000000
  1O   1f0       -0.000000 -0.000000 -0.000000 -0.000000 -0.000000  0.000000
  1O   1f+1       0.000153  0.000000 -0.000907 -0.001119  0.001397 -0.001074
  1O   1f-1      -0.000000  0.000000  0.000000  0.000000  0.000000 -0.000000
  1O   1f+2       0.000000  0.000000  0.000000  0.000000  0.000000 -0.000000
  1O   1f-2       0.000000  0.000000 -0.000000 -0.000000  0.000000  0.000000
  1O   1f+3       0.000197  0.000000 -0.001170 -0.001445  0.001804 -0.001386
  1O   1f-3      -0.000000  0.000000  0.000000  0.000000 -0.000000 -0.000000
  2O   1s        -0.308025  0.308012 -0.000058  0.066181  0.070671 -0.040674
  2O   2s        -0.451355  0.451455 -0.000326  0.154460  0.164979 -0.095831
  2O   3s        -0.029273  0.026753  0.004069 -0.235181 -0.255058  0.150000
  2O   4s         0.034153 -0.017859 -0.009631 -0.298677 -0.284905  0.215621
  2O   5s        -0.000019  0.013753  0.002523 -0.093032 -0.074574  0.146911
  2O   1pz       -0.000000  0.000000  0.000000 -0.000000 -0.000000 -0.000000
  2O   1px       -0.001910  0.001388  0.001032 -0.094725 -0.096643 -0.269471
  2O   1py       -0.000000  0.000000 -0.000000  0.000000 -0.000000 -0.000000
  2O   2pz        0.000000  0.000000 -0.000000  0.000000  0.000000  0.000000
  2O   2px        0.010529 -0.000904 -0.007993 -0.073596 -0.053621 -0.189842
  2O   2py        0.000000 -0.000000  0.000000 -0.000000 -0.000000  0.000000
  2O   3pz       -0.000000  0.000000  0.000000 -0.000000 -0.000000 -0.000000
  2O   3px        0.001412  0.001584  0.002085 -0.012784 -0.000830 -0.083692
  2O   3py       -0.000000  0.000000 -0.000000  0.000000  0.000000 -0.000000
  2O   1dz2       0.000121 -0.000215 -0.000067  0.002862  0.002840  0.003331
  2O   1dxz       0.000000 -0.000000 -0.000000  0.000000  0.000000  0.000000
  2O   1dyz       0.000000 -0.000000 -0.000000 -0.000000 -0.000000  0.000000
  2O   1dx2y2    -0.000210  0.000373  0.000115 -0.004957 -0.004918 -0.005770
  2O   1dxy       0.000000 -0.000000  0.000000 -0.000000  0.000000 -0.000000
  2O   2dz2      -0.001009  0.000211  0.002347  0.005403  0.003538  0.004508
  2O   2dxz      -0.000000  0.000000  0.000000  0.000000 -0.000000 -0.000000
  2O   2dyz      -0.000000  0.000000  0.000000  0.000000  0.000000  0.000000
  2O   2dx2y2     0.001748 -0.000365 -0.004064 -0.009359 -0.006128 -0.007808
  2O   2dxy       0.000000 -0.000000 -0.000000  0.000000 -0.000000  0.000000
  2O   1f0       -0.000000 -0.000000 -0.000000 -0.000000  0.000000  0.000000
  2O   1f+1      -0.000153  0.000000  0.000907  0.001119  0.001397  0.001074
  2O   1f-1      -0.000000  0.000000  0.000000  0.000000 -0.000000 -0.000000
  2O   1f+2       0.000000  0.000000  0.000000  0.000000 -0.000000 -0.000000
  2O   1f-2      -0.000000  0.000000  0.000000 -0.000000  0.000000  0.000000
  2O   1f+3      -0.000197  0.000000  0.001170  0.001445  0.001804  0.001386
  2O   1f-3      -0.000000  0.000000  0.000000  0.000000 -0.000000 -0.000000
                      6         7         8         9        10        11   
                  -0.53902  -0.48824  -0.48824  -0.39685  -0.39685  -0.05448
                   2.00000   2.00000   2.00000   2.00000   2.00000   0.00000
                  --------  --------  --------  --------  --------  --------
  0C   1s        -0.000000 -0.000000 -0.000000  0.000000 -0.000000 -0.000000
  0C   2s        -0.000000 -0.000000 -0.000000  0.000000 -0.000000 -0.000000
  0C   3s         0.000000  0.000000  0.000000 -0.000000  0.000000 -0.000000
  0C   4s         0.000000 -0.000000 -0.000000 -0.000000 -0.000000  0.000000
  0C   5s         0.000000  0.000000 -0.000000 -0.000000 -0.000000  0.000000
  0C   1pz       -0.000000  0.189844  0.177887 -0.000000 -0.000000 -0.453620
  0C   1px        0.253727  0.000000  0.000000  0.000000 -0.000000  0.000000
  0C   1py        0.000000  0.177887 -0.189844 -0.000000 -0.000000  0.008704
  0C   2pz        0.000000  0.135430  0.126900  0.000000  0.000000 -0.465515
  0C   2px        0.160594 -0.000000 -0.000000 -0.000000  0.000000  0.000000
  0C   2py        0.000000  0.126900 -0.135430 -0.000000  0.000000  0.008932
  0C   3pz       -0.000000  0.033534  0.031422 -0.000000 -0.000000 -0.435578
  0C   3px       -0.022808 -0.000000 -0.000000 -0.000000  0.000000  0.000000
  0C   3py        0.000000  0.031422 -0.033534  0.000000 -0.000000  0.008358
  0C   1dz2       0.000000  0.000000  0.000000  0.000000  0.000000 -0.000000
  0C   1dxz       0.000000 -0.000000 -0.000000  0.013092  0.028068 -0.000000
  0C   1dyz       0.000000  0.000000  0.000000  0.000000  0.000000 -0.000000
  0C   1dx2y2    -0.000000 -0.000000 -0.000000 -0.000000 -0.000000  0.000000
  0C   1dxy      -0.000000 -0.000000  0.000000  0.028068 -0.013092 -0.000000
  0C   2dz2       0.000000  0.000000  0.000000  0.000000  0.000000 -0.000000
  0C   2dxz      -0.000000 -0.000000  0.000000  0.014999  0.032158 -0.000000
  0C   2dyz      -0.000000 -0.000000 -0.000000 -0.000000 -0.000000  0.000000
  0C   2dx2y2    -0.000000 -0.000000 -0.000000 -0.000000 -0.000000  0.000000
  0C   2dxy       0.000000 -0.000000 -0.000000  0.032158 -0.014999  0.000000
  0C   1f0        0.000000 -0.008008 -0.007503 -0.000000 -0.000000 -0.000783
  0C   1f+1      -0.011441  0.000000  0.000000  0.000000 -0.000000 -0.000000
  0C   1f-1       0.000000 -0.003065  0.003271 -0.000000  0.000000  0.000006
  0C   1f+2      -0.000000  0.010340  0.009689 -0.000000  0.000000  0.001000
  0C   1f-2      -0.000000  0.000000  0.000000 -0.000000  0.000000  0.000000
  0C   1f+3      -0.014771  0.000000  0.000000  0.000000 -0.000000 -0.000000
  0C   1f-3      -0.000000 -0.011865  0.012663 -0.000000  0.000000  0.000024
  1O   1s         0.031313  0.000000  0.000000  0.000000  0.000000  0.000000
  1O   2s         0.073735  0.000000  0.000000 -0.000000  0.000000  0.000000
  1O   3s        -0.110786 -0.000000 -0.000000  0.000000 -0.000000  0.000000
  1O   4s        -0.199928  0.000000  0.000000 -0.000000  0.000000 -0.000000
  1O   5s        -0.133960  0.000000  0.000000  0.000000 -0.000000 -0.000000
  1O   1pz       -0.000000  0.216603  0.202960  0.156650  0.335853  0.267196
  1O   1px       -0.315383  0.000000  0.000000  0.000000 -0.000000  0.000000
  1O   1py        0.000000  0.202960 -0.216603  0.335853 -0.156650 -0.005127
  1O   2pz       -0.000000  0.165806  0.155363  0.123253  0.264250  0.215067
  1O   2px       -0.208926 -0.000000 -0.000000 -0.000000  0.000000  0.000000
  1O   2py        0.000000  0.155363 -0.165806  0.264250 -0.123253 -0.004127
  1O   3pz       -0.000000  0.077974  0.073063  0.071118  0.152475  0.279489
  1O   3px       -0.091307 -0.000000 -0.000000 -0.000000  0.000000  0.000000
  1O   3py       -0.000000  0.073063 -0.077974  0.152475 -0.071118 -0.005363
  1O   1dz2      -0.003770  0.000000  0.000000  0.000000 -0.000000 -0.000000
  1O   1dxz       0.000000 -0.005177 -0.004851 -0.002093 -0.004487  0.007164
  1O   1dyz      -0.000000 -0.000000  0.000000 -0.000000  0.000000 -0.000000
  1O   1dx2y2     0.006529 -0.000000 -0.000000 -0.000000  0.000000  0.000000
  1O   1dxy      -0.000000 -0.004851  0.005177 -0.004487  0.002093 -0.000137
  1O   2dz2      -0.003948 -0.000000 -0.000000 -0.000000  0.000000  0.000000
  1O   2dxz      -0.000000 -0.010842 -0.010159 -0.006140 -0.013164  0.022436
  1O   2dyz       0.000000  0.000000 -0.000000  0.000000 -0.000000  0.000000
  1O   2dx2y2     0.006838  0.000000  0.000000  0.000000 -0.000000 -0.000000
  1O   2dxy       0.000000 -0.010159  0.010842 -0.013164  0.006140 -0.000431
  1O   1f0        0.000000 -0.001511 -0.001416 -0.001036 -0.002221  0.001312
  1O   1f+1       0.001662  0.000000  0.000000  0.000000 -0.000000 -0.000000
  1O   1f-1      -0.000000 -0.000573  0.000611 -0.000899  0.000419 -0.000010
  1O   1f+2      -0.000000  0.001944  0.001821  0.001333  0.002857 -0.001699
  1O   1f-2       0.000000 -0.000000 -0.000000 -0.000000  0.000000  0.000000
  1O   1f+3       0.002145  0.000000  0.000000  0.000000 -0.000000 -0.000000
  1O   1f-3       0.000000 -0.002235  0.002385 -0.003506  0.001635 -0.000040
  2O   1s        -0.031313 -0.000000  0.000000 -0.000000 -0.000000  0.000000
  2O   2s        -0.073735  0.000000  0.000000  0.000000 -0.000000  0.000000
  2O   3s         0.110786 -0.000000 -0.000000 -0.000000  0.000000  0.000000
  2O   4s         0.199928  0.000000  0.000000  0.000000 -0.000000 -0.000000
  2O   5s         0.133960 -0.000000  0.000000 -0.000000  0.000000 -0.000000
  2O   1pz       -0.000000  0.216603  0.202960 -0.156650 -0.335853  0.267196
  2O   1px       -0.315383 -0.000000 -0.000000  0.000000 -0.000000 -0.000000
  2O   1py        0.000000  0.202960 -0.216603 -0.335853  0.156650 -0.005127
  2O   2pz       -0.000000  0.165806  0.155363 -0.123253 -0.264250  0.215067
  2O   2px       -0.208926  0.000000  0.000000 -0.000000  0.000000 -0.000000
  2O   2py        0.000000  0.155363 -0.165806 -0.264250  0.123253 -0.004127
  2O   3pz       -0.000000  0.077974  0.073063 -0.071118 -0.152475  0.279489
  2O   3px       -0.091307 -0.000000  0.000000 -0.000000  0.000000 -0.000000
  2O   3py        0.000000  0.073063 -0.077974 -0.152475  0.071118 -0.005363
  2O   1dz2       0.003770  0.000000  0.000000 -0.000000  0.000000 -0.000000
  2O   1dxz      -0.000000  0.005177  0.004851 -0.002093 -0.004487 -0.007164
  2O   1dyz       0.000000  0.000000  0.000000  0.000000 -0.000000 -0.000000
  2O   1dx2y2    -0.006529 -0.000000 -0.000000  0.000000 -0.000000  0.000000
  2O   1dxy      -0.000000  0.004851 -0.005177 -0.004487  0.002093  0.000137
  2O   2dz2       0.003948  0.000000 -0.000000  0.000000 -0.000000  0.000000
  2O   2dxz      -0.000000  0.010842  0.010159 -0.006140 -0.013164 -0.022436
  2O   2dyz      -0.000000 -0.000000 -0.000000 -0.000000  0.000000  0.000000
  2O   2dx2y2    -0.006838 -0.000000  0.000000 -0.000000  0.000000 -0.000000
  2O   2dxy       0.000000  0.010159 -0.010842 -0.013164  0.006140  0.000431
  2O   1f0        0.000000 -0.001511 -0.001416  0.001036  0.002221  0.001312
  2O   1f+1       0.001662  0.000000  0.000000  0.000000 -0.000000  0.000000
  2O   1f-1      -0.000000 -0.000573  0.000611  0.000899 -0.000419 -0.000010
  2O   1f+2      -0.000000  0.001944  0.001821 -0.001333 -0.002857 -0.001699
  2O   1f-2       0.000000 -0.000000  0.000000 -0.000000  0.000000 -0.000000
  2O   1f+3       0.002145  0.000000  0.000000  0.000000  0.000000  0.000000
  2O   1f-3      -0.000000 -0.002235  0.002385  0.003506 -0.001635 -0.000040
                     12        13        14        15        16        17   
                  -0.05448  -0.03007   0.13168   0.17011   0.17011   0.19825
                   0.00000   0.00000   0.00000   0.00000   0.00000   0.00000
                  --------  --------  --------  --------  --------  --------
  0C   1s        -0.000000  0.040031 -0.000000 -0.000000  0.000000 -0.082431
  0C   2s        -0.000000  0.087360 -0.000000 -0.000000  0.000000 -0.173223
  0C   3s        -0.000000 -0.041603  0.000000  0.000000  0.000000  0.411849
  0C   4s         0.000000 -0.930745  0.000000 -0.000000 -0.000000  0.168692
  0C   5s         0.000000 -1.836425 -0.000000 -0.000000 -0.000000 -2.531378
  0C   1pz       -0.008704 -0.000000 -0.000000 -0.126872 -0.210448  0.000000
  0C   1px       -0.000000  0.000000 -0.027919 -0.000000 -0.000000  0.000000
  0C   1py       -0.453620 -0.000000  0.000000  0.210448 -0.126872 -0.000000
  0C   2pz       -0.008932 -0.000000  0.000000 -0.350258 -0.580986 -0.000000
  0C   2px       -0.000000 -0.000000 -1.126069 -0.000000 -0.000000 -0.000000
  0C   2py       -0.465515 -0.000000 -0.000000  0.580986 -0.350258 -0.000000
  0C   3pz       -0.008358  0.000000 -0.000000  0.721632  1.196996  0.000000
  0C   3px       -0.000000 -0.000000 -2.999151 -0.000000 -0.000000  0.000000
  0C   3py       -0.435578 -0.000000 -0.000000 -1.196996  0.721632  0.000000
  0C   1dz2      -0.000000 -0.027044  0.000000  0.000000  0.000000  0.024352
  0C   1dxz      -0.000000  0.000000 -0.000000 -0.000000 -0.000000  0.000000
  0C   1dyz      -0.000000  0.000000 -0.000000  0.000000  0.000000  0.000000
  0C   1dx2y2     0.000000  0.046842 -0.000000 -0.000000 -0.000000 -0.042179
  0C   1dxy       0.000000 -0.000000  0.000000  0.000000 -0.000000  0.000000
  0C   2dz2      -0.000000  0.084174  0.000000  0.000000  0.000000  0.328654
  0C   2dxz       0.000000  0.000000  0.000000  0.000000  0.000000 -0.000000
  0C   2dyz       0.000000 -0.000000  0.000000 -0.000000 -0.000000 -0.000000
  0C   2dx2y2     0.000000 -0.145794 -0.000000 -0.000000 -0.000000 -0.569246
  0C   2dxy      -0.000000 -0.000000 -0.000000 -0.000000 -0.000000 -0.000000
  0C   1f0       -0.000015  0.000000 -0.000000  0.013286  0.022037  0.000000
  0C   1f+1       0.000000  0.000000  0.027884  0.000000  0.000000  0.000000
  0C   1f-1      -0.000311 -0.000000  0.000000 -0.009018  0.005437  0.000000
  0C   1f+2       0.000019 -0.000000  0.000000 -0.017168 -0.028477 -0.000000
  0C   1f-2       0.000000 -0.000000 -0.000000 -0.000000  0.000000 -0.000000
  0C   1f+3       0.000000  0.000000  0.035998  0.000000  0.000000  0.000000
  0C   1f-3      -0.001231 -0.000000  0.000000 -0.034861  0.021016  0.000000
  1O   1s         0.000000 -0.032830 -0.025618  0.000000 -0.000000  0.012822
  1O   2s         0.000000 -0.079411 -0.065106  0.000000 -0.000000  0.032365
  1O   3s         0.000000  0.138294  0.146029 -0.000000 -0.000000 -0.086753
  1O   4s        -0.000000  0.300267  0.004546  0.000000  0.000000  0.123481
  1O   5s        -0.000000  0.887406  2.838979  0.000000  0.000000  1.228113
  1O   1pz        0.005127  0.000000  0.000000 -0.032009 -0.053094 -0.000000
  1O   1px        0.000000 -0.181548  0.073589  0.000000  0.000000  0.269540
  1O   1py        0.267196  0.000000 -0.000000  0.053094 -0.032009 -0.000000
  1O   2pz        0.004127  0.000000  0.000000 -0.008346 -0.013845 -0.000000
  1O   2px        0.000000 -0.229243 -0.116576 -0.000000 -0.000000  0.055155
  1O   2py        0.215067  0.000000 -0.000000  0.013845 -0.008346  0.000000
  1O   3pz        0.005363 -0.000000 -0.000000 -0.041333 -0.068560  0.000000
  1O   3px        0.000000 -0.420449 -0.840812 -0.000000 -0.000000 -0.404032
  1O   3py        0.279489 -0.000000  0.000000  0.068560 -0.041333 -0.000000
  1O   1dz2      -0.000000  0.000229  0.002771  0.000000  0.000000 -0.000248
  1O   1dxz       0.000137  0.000000  0.000000  0.004065  0.006743  0.000000
  1O   1dyz       0.000000  0.000000 -0.000000  0.000000 -0.000000  0.000000
  1O   1dx2y2     0.000000 -0.000396 -0.004800 -0.000000 -0.000000  0.000430
  1O   1dxy       0.007164  0.000000  0.000000 -0.006743  0.004065  0.000000
  1O   2dz2       0.000000 -0.011575 -0.045281 -0.000000 -0.000000 -0.041649
  1O   2dxz       0.000431  0.000000 -0.000000 -0.007371 -0.012226 -0.000000
  1O   2dyz      -0.000000 -0.000000  0.000000 -0.000000  0.000000 -0.000000
  1O   2dx2y2    -0.000000  0.020048  0.078428  0.000000  0.000000  0.072139
  1O   2dxy       0.022436  0.000000 -0.000000  0.012226 -0.007371 -0.000000
  1O   1f0        0.000025  0.000000  0.000000 -0.001488 -0.002469 -0.000000
  1O   1f+1      -0.000000  0.000449  0.003613  0.000000  0.000000  0.000885
  1O   1f-1       0.000540  0.000000 -0.000000  0.001007 -0.000607 -0.000000
  1O   1f+2      -0.000033 -0.000000 -0.000000  0.001921  0.003186  0.000000
  1O   1f-2       0.000000 -0.000000 -0.000000  0.000000 -0.000000 -0.000000
  1O   1f+3      -0.000000  0.000580  0.004665  0.000000  0.000000  0.001142
  1O   1f-3       0.002077  0.000000 -0.000000  0.003903 -0.002353  0.000000
  2O   1s         0.000000 -0.032830  0.025618  0.000000 -0.000000  0.012822
  2O   2s         0.000000 -0.079411  0.065106  0.000000  0.000000  0.032365
  2O   3s         0.000000  0.138294 -0.146029  0.000000 -0.000000 -0.086753
  2O   4s        -0.000000  0.300267 -0.004546 -0.000000  0.000000  0.123481
  2O   5s        -0.000000  0.887406 -2.838979  0.000000  0.000000  1.228113
  2O   1pz        0.005127  0.000000  0.000000 -0.032009 -0.053094 -0.000000
  2O   1px       -0.000000  0.181548  0.073589 -0.000000 -0.000000 -0.269540
  2O   1py        0.267196  0.000000  0.000000  0.053094 -0.032009 -0.000000
  2O   2pz        0.004127  0.000000 -0.000000 -0.008346 -0.013845  0.000000
  2O   2px       -0.000000  0.229243 -0.116576  0.000000  0.000000 -0.055155
  2O   2py        0.215067  0.000000  0.000000  0.013845 -0.008346 -0.000000
  2O   3pz        0.005363 -0.000000  0.000000 -0.041333 -0.068560 -0.000000
  2O   3px       -0.000000  0.420449 -0.840812  0.000000  0.000000  0.404032
  2O   3py        0.279489  0.000000 -0.000000  0.068560 -0.041333 -0.000000
  2O   1dz2      -0.000000  0.000229 -0.002771  0.000000  0.000000 -0.000248
  2O   1dxz      -0.000137 -0.000000  0.000000 -0.004065 -0.006743  0.000000
  2O   1dyz       0.000000  0.000000 -0.000000  0.000000  0.000000  0.000000
  2O   1dx2y2     0.000000 -0.000396  0.004800 -0.000000 -0.000000  0.000430
  2O   1dxy      -0.007164 -0.000000  0.000000  0.006743 -0.004065 -0.000000
  2O   2dz2       0.000000 -0.011575  0.045281 -0.000000 -0.000000 -0.041649
  2O   2dxz      -0.000431 -0.000000 -0.000000  0.007371  0.012226 -0.000000
  2O   2dyz      -0.000000 -0.000000  0.000000 -0.000000 -0.000000 -0.000000
  2O   2dx2y2    -0.000000  0.020048 -0.078428  0.000000  0.000000  0.072139
  2O   2dxy      -0.022436 -0.000000  0.000000 -0.012226  0.007371 -0.000000
  2O   1f0        0.000025 -0.000000  0.000000 -0.001488 -0.002469 -0.000000
  2O   1f+1       0.000000 -0.000449  0.003613  0.000000 -0.000000 -0.000885
  2O   1f-1       0.000540  0.000000 -0.000000  0.001007 -0.000607  0.000000
  2O   1f+2      -0.000033  0.000000 -0.000000  0.001921  0.003186  0.000000
  2O   1f-2       0.000000 -0.000000 -0.000000  0.000000  0.000000 -0.000000
  2O   1f+3       0.000000 -0.000580  0.004665  0.000000 -0.000000 -0.001142
  2O   1f-3       0.002077  0.000000 -0.000000  0.003903 -0.002353  0.000000
                     18        19        20        21        22        23   
                   0.30414   0.36559   0.37161   0.37161   0.52484   0.52484
                   0.00000   0.00000   0.00000   0.00000   0.00000   0.00000
                  --------  --------  --------  --------  --------  --------
  0C   1s         0.030032 -0.000000  0.000000  0.000000  0.000000 -0.000000
  0C   2s         0.061118 -0.000000  0.000000  0.000000  0.000000 -0.000000
  0C   3s         0.352219  0.000000 -0.000000 -0.000000 -0.000000 -0.000000
  0C   4s        -4.373129 -0.000000  0.000000  0.000000  0.000000  0.000000
  0C   5s        -0.399434 -0.000000  0.000000  0.000000  0.000000  0.000000
  0C   1pz        0.000000  0.000000  0.000000  0.000000  0.097926  0.056012
  0C   1px        0.000000  0.221075  0.000000  0.000000 -0.000000  0.000000
  0C   1py       -0.000000  0.000000  0.000000 -0.000000 -0.056012  0.097926
  0C   2pz        0.000000 -0.000000 -0.000000 -0.000000 -0.111084 -0.063538
  0C   2px        0.000000  2.736413  0.000000  0.000000  0.000000 -0.000000
  0C   2py        0.000000  0.000000  0.000000  0.000000  0.063538 -0.111084
  0C   3pz        0.000000  0.000000 -0.000000  0.000000 -1.424171 -0.814604
  0C   3px       -0.000000 -0.864734 -0.000000 -0.000000 -0.000000 -0.000000
  0C   3py        0.000000  0.000000 -0.000000 -0.000000  0.814604 -1.424171
  0C   1dz2       0.031928  0.000000 -0.000000  0.000000 -0.000000 -0.000000
  0C   1dxz       0.000000  0.000000 -0.011702 -0.000946  0.000000 -0.000000
  0C   1dyz      -0.000000  0.000000  0.000000  0.000000 -0.000000 -0.000000
  0C   1dx2y2    -0.055301 -0.000000  0.000000 -0.000000  0.000000  0.000000
  0C   1dxy      -0.000000 -0.000000 -0.000946  0.011702 -0.000000  0.000000
  0C   2dz2       0.322542  0.000000 -0.000000 -0.000000 -0.000000 -0.000000
  0C   2dxz      -0.000000 -0.000000  0.421534  0.034068 -0.000000 -0.000000
  0C   2dyz       0.000000 -0.000000 -0.000000 -0.000000  0.000000  0.000000
  0C   2dx2y2    -0.558660 -0.000000  0.000000  0.000000  0.000000  0.000000
  0C   2dxy       0.000000  0.000000  0.034068 -0.421534  0.000000 -0.000000
  0C   1f0       -0.000000  0.000000  0.000000  0.000000 -0.000594 -0.000340
  0C   1f+1      -0.000000 -0.103256 -0.000000 -0.000000 -0.000000  0.000000
  0C   1f-1      -0.000000  0.000000 -0.000000 -0.000000  0.000147 -0.000256
  0C   1f+2       0.000000 -0.000000 -0.000000 -0.000000  0.000784  0.000449
  0C   1f-2       0.000000  0.000000  0.000000 -0.000000  0.000000  0.000000
  0C   1f+3      -0.000000 -0.133303 -0.000000 -0.000000 -0.000000  0.000000
  0C   1f-3      -0.000000  0.000000 -0.000000 -0.000000  0.000543 -0.000950
  1O   1s        -0.016533  0.005790  0.000000  0.000000 -0.000000 -0.000000
  1O   2s        -0.034268  0.010721  0.000000  0.000000 -0.000000 -0.000000
  1O   3s        -0.039177  0.091533  0.000000  0.000000  0.000000  0.000000
  1O   4s         0.649210 -0.613275 -0.000000 -0.000000 -0.000000 -0.000000
  1O   5s         1.454481 -1.296203 -0.000000 -0.000000 -0.000000 -0.000000
  1O   1pz        0.000000 -0.000000  0.198370  0.016032 -0.166658 -0.095326
  1O   1px        0.125690 -0.038928 -0.000000 -0.000000  0.000000  0.000000
  1O   1py        0.000000  0.000000  0.016032 -0.198370  0.095326 -0.166658
  1O   2pz        0.000000 -0.000000  0.322776  0.026086 -0.411855 -0.235575
  1O   2px       -0.071263  0.362916  0.000000  0.000000  0.000000  0.000000
  1O   2py        0.000000  0.000000  0.026086 -0.322776  0.235575 -0.411855
  1O   3pz       -0.000000  0.000000 -1.091462 -0.088211  1.384874  0.792126
  1O   3px       -1.725584  1.795102  0.000000  0.000000  0.000000  0.000000
  1O   3py       -0.000000 -0.000000 -0.088211  1.091462 -0.792126  1.384874
  1O   1dz2       0.010214 -0.009951 -0.000000 -0.000000 -0.000000 -0.000000
  1O   1dxz      -0.000000  0.000000 -0.015695 -0.001268  0.007287  0.004168
  1O   1dyz      -0.000000  0.000000  0.000000 -0.000000  0.000000  0.000000
  1O   1dx2y2    -0.017691  0.017235  0.000000  0.000000  0.000000  0.000000
  1O   1dxy      -0.000000 -0.000000 -0.001268  0.015695 -0.004168  0.007287
  1O   2dz2      -0.044334  0.065478  0.000000  0.000000  0.000000  0.000000
  1O   2dxz      -0.000000 -0.000000  0.048628  0.003930  0.017325  0.009910
  1O   2dyz       0.000000 -0.000000 -0.000000  0.000000  0.000000 -0.000000
  1O   2dx2y2     0.076789 -0.113412 -0.000000 -0.000000 -0.000000 -0.000000
  1O   2dxy       0.000000  0.000000  0.003930 -0.048628 -0.009910  0.017325
  1O   1f0       -0.000000 -0.000000  0.001118  0.000090 -0.000194 -0.000111
  1O   1f+1       0.002377 -0.008185 -0.000000 -0.000000 -0.000000 -0.000000
  1O   1f-1       0.000000  0.000000  0.000037 -0.000453  0.000045 -0.000078
  1O   1f+2       0.000000  0.000000 -0.001439 -0.000116  0.000249  0.000143
  1O   1f-2      -0.000000  0.000000 -0.000000 -0.000000 -0.000000  0.000000
  1O   1f+3       0.003069 -0.010566 -0.000000 -0.000000 -0.000000 -0.000000
  1O   1f-3       0.000000  0.000000  0.000143 -0.001765  0.000175 -0.000306
  2O   1s        -0.016533 -0.005790 -0.000000 -0.000000 -0.000000 -0.000000
  2O   2s        -0.034268 -0.010721 -0.000000 -0.000000 -0.000000 -0.000000
  2O   3s        -0.039177 -0.091533 -0.000000 -0.000000  0.000000  0.000000
  2O   4s         0.649210  0.613275  0.000000  0.000000 -0.000000 -0.000000
  2O   5s         1.454481  1.296203  0.000000  0.000000 -0.000000 -0.000000
  2O   1pz        0.000000  0.000000 -0.198370 -0.016032 -0.166658 -0.095326
  2O   1px       -0.125690 -0.038928 -0.000000 -0.000000 -0.000000 -0.000000
  2O   1py        0.000000 -0.000000 -0.016032  0.198370  0.095326 -0.166658
  2O   2pz        0.000000  0.000000 -0.322776 -0.026086 -0.411855 -0.235575
  2O   2px        0.071263  0.362916  0.000000  0.000000 -0.000000 -0.000000
  2O   2py        0.000000 -0.000000 -0.026086  0.322776  0.235575 -0.411855
  2O   3pz       -0.000000 -0.000000  1.091462  0.088211  1.384874  0.792126
  2O   3px        1.725584  1.795102  0.000000  0.000000 -0.000000 -0.000000
  2O   3py       -0.000000  0.000000  0.088211 -1.091462 -0.792126  1.384874
  2O   1dz2       0.010214  0.009951  0.000000  0.000000 -0.000000 -0.000000
  2O   1dxz       0.000000  0.000000 -0.015695 -0.001268 -0.007287 -0.004168
  2O   1dyz      -0.000000  0.000000  0.000000  0.000000  0.000000  0.000000
  2O   1dx2y2    -0.017691 -0.017235 -0.000000 -0.000000  0.000000  0.000000
  2O   1dxy       0.000000 -0.000000 -0.001268  0.015695  0.004168 -0.007287
  2O   2dz2      -0.044334 -0.065478 -0.000000 -0.000000  0.000000  0.000000
  2O   2dxz      -0.000000 -0.000000  0.048628  0.003930 -0.017325 -0.009910
  2O   2dyz       0.000000 -0.000000 -0.000000 -0.000000  0.000000 -0.000000
  2O   2dx2y2     0.076789  0.113412  0.000000  0.000000 -0.000000 -0.000000
  2O   2dxy      -0.000000  0.000000  0.003930 -0.048628  0.009910 -0.017325
  2O   1f0        0.000000 -0.000000 -0.001118 -0.000090 -0.000194 -0.000111
  2O   1f+1      -0.002377 -0.008185 -0.000000 -0.000000  0.000000  0.000000
  2O   1f-1       0.000000 -0.000000 -0.000037  0.000453  0.000045 -0.000078
  2O   1f+2      -0.000000  0.000000  0.001439  0.000116  0.000249  0.000143
  2O   1f-2       0.000000  0.000000 -0.000000 -0.000000  0.000000 -0.000000
  2O   1f+3      -0.003069 -0.010566 -0.000000 -0.000000  0.000000  0.000000
  2O   1f-3       0.000000 -0.000000 -0.000143  0.001765  0.000175 -0.000306
                     24        25        26        27        28        29   
                   0.56742   0.56763   0.64936   0.70614   0.75725   0.87677
                   0.00000   0.00000   0.00000   0.00000   0.00000   0.00000
                  --------  --------  --------  --------  --------  --------
  0C   1s        -0.000000  0.000000  0.036849  0.000000  0.000000  0.000000
  0C   2s        -0.000000  0.000000  0.082027  0.000000  0.000000  0.000000
  0C   3s         0.000000  0.000000  0.466901  0.000000  0.000000 -0.000000
  0C   4s        -0.000000 -0.000000 -5.903201 -0.000000 -0.000000  0.000000
  0C   5s         0.000000 -0.000000 -3.876636 -0.000000 -0.000000  0.000000
  0C   1pz       -0.000000 -0.000000  0.000000  0.000000  0.000000  0.000000
  0C   1px        0.000000 -0.000000  0.000000 -0.730957  0.217296  0.000000
  0C   1py        0.000000  0.000000 -0.000000 -0.000000 -0.000000 -0.000000
  0C   2pz        0.000000  0.000000 -0.000000 -0.000000 -0.000000 -0.000000
  0C   2px       -0.000000  0.000000 -0.000000  0.426777  1.673298 -0.000000
  0C   2py       -0.000000 -0.000000  0.000000  0.000000  0.000000  0.000000
  0C   3pz        0.000000  0.000000 -0.000000 -0.000000 -0.000000 -0.000000
  0C   3px       -0.000000  0.000000 -0.000000  0.789018  4.199494  0.000000
  0C   3py       -0.000000 -0.000000 -0.000000  0.000000 -0.000000  0.000000
  0C   1dz2       0.000000  0.002387  0.019499  0.000000  0.000000 -0.000000
  0C   1dxz       0.000000 -0.000000  0.000000  0.000000  0.000000  0.009933
  0C   1dyz      -0.002881  0.000000  0.000000  0.000000  0.000000  0.000000
  0C   1dx2y2    -0.000000  0.001378 -0.033773 -0.000000 -0.000000  0.000000
  0C   1dxy      -0.000000 -0.000000  0.000000 -0.000000 -0.000000 -0.024310
  0C   2dz2      -0.000000 -0.816621  0.752048  0.000000  0.000000 -0.000000
  0C   2dxz      -0.000000  0.000000  0.000000 -0.000000 -0.000000  0.509166
  0C   2dyz       0.943104 -0.000000  0.000000  0.000000  0.000000 -0.000000
  0C   2dx2y2    -0.000000 -0.471476 -1.302585 -0.000000 -0.000000  0.000000
  0C   2dxy      -0.000000  0.000000 -0.000000  0.000000  0.000000 -1.246155
  0C   1f0       -0.000000 -0.000000  0.000000  0.000000  0.000000  0.000000
  0C   1f+1       0.000000 -0.000000  0.000000 -0.050113 -0.024507  0.000000
  0C   1f-1       0.000000 -0.000000 -0.000000 -0.000000 -0.000000  0.000000
  0C   1f+2       0.000000  0.000000 -0.000000 -0.000000 -0.000000 -0.000000
  0C   1f-2      -0.000000 -0.000000  0.000000  0.000000  0.000000  0.000000
  0C   1f+3       0.000000 -0.000000  0.000000 -0.064696 -0.031639  0.000000
  0C   1f-3       0.000000 -0.000000 -0.000000 -0.000000 -0.000000  0.000000
  1O   1s         0.000000  0.000000  0.029835 -0.041883 -0.032702 -0.000000
  1O   2s         0.000000  0.000000  0.066771 -0.100920 -0.066950 -0.000000
  1O   3s        -0.000000 -0.000000 -0.059594  0.169899 -0.077686 -0.000000
  1O   4s         0.000000  0.000000 -0.630077  0.689693  1.792485  0.000000
  1O   5s         0.000000  0.000000  5.602200 -1.723654 -6.353704 -0.000000
  1O   1pz        0.000000  0.000000 -0.000000  0.000000  0.000000 -0.062922
  1O   1px        0.000000  0.000000 -0.063040 -0.331934  0.135305  0.000000
  1O   1py       -0.000000 -0.000000 -0.000000 -0.000000 -0.000000  0.153999
  1O   2pz        0.000000  0.000000 -0.000000  0.000000  0.000000 -0.148159
  1O   2px       -0.000000 -0.000000 -0.728829 -0.201194  0.441847 -0.000000
  1O   2py       -0.000000 -0.000000 -0.000000 -0.000000 -0.000000  0.362610
  1O   3pz       -0.000000 -0.000000  0.000000  0.000000  0.000000 -0.103099
  1O   3px        0.000000 -0.000000 -1.810788  0.723817  0.862197  0.000000
  1O   3py        0.000000  0.000000  0.000000  0.000000  0.000000  0.252329
  1O   1dz2      -0.000000 -0.006687  0.010863  0.005367 -0.007969 -0.000000
  1O   1dxz      -0.000000 -0.000000  0.000000  0.000000  0.000000 -0.011301
  1O   1dyz       0.007720 -0.000000  0.000000  0.000000  0.000000 -0.000000
  1O   1dx2y2    -0.000000 -0.003861 -0.018814 -0.009296  0.013803  0.000000
  1O   1dxy       0.000000  0.000000  0.000000 -0.000000 -0.000000  0.027660
  1O   2dz2      -0.000000 -0.079066 -0.039061  0.094715  0.012076 -0.000000
  1O   2dxz      -0.000000  0.000000  0.000000 -0.000000  0.000000 -0.031623
  1O   2dyz       0.091177 -0.000000  0.000000 -0.000000 -0.000000  0.000000
  1O   2dx2y2    -0.000000 -0.045649  0.067656 -0.164052 -0.020917  0.000000
  1O   2dxy       0.000000  0.000000  0.000000  0.000000  0.000000  0.077397
  1O   1f0        0.000000  0.000000 -0.000000 -0.000000 -0.000000  0.001529
  1O   1f+1       0.000000  0.001908  0.001003 -0.006245 -0.000876  0.000000
  1O   1f-1      -0.000000  0.000000  0.000000  0.000000  0.000000 -0.001530
  1O   1f+2      -0.000000 -0.000000  0.000000  0.000000  0.000000 -0.001975
  1O   1f-2      -0.002405  0.000000 -0.000000  0.000000  0.000000 -0.000000
  1O   1f+3      -0.000000 -0.001478  0.001295 -0.008062 -0.001131  0.000000
  1O   1f-3      -0.000000 -0.000000  0.000000  0.000000  0.000000 -0.005919
  2O   1s        -0.000000  0.000000  0.029835  0.041883  0.032702  0.000000
  2O   2s        -0.000000  0.000000  0.066771  0.100920  0.066950  0.000000
  2O   3s        -0.000000 -0.000000 -0.059594 -0.169899  0.077686  0.000000
  2O   4s         0.000000  0.000000 -0.630077 -0.689693 -1.792485 -0.000000
  2O   5s        -0.000000  0.000000  5.602200  1.723654  6.353704  0.000000
  2O   1pz        0.000000  0.000000 -0.000000 -0.000000 -0.000000  0.062922
  2O   1px       -0.000000 -0.000000  0.063040 -0.331934  0.135305  0.000000
  2O   1py       -0.000000 -0.000000 -0.000000  0.000000  0.000000 -0.153999
  2O   2pz        0.000000  0.000000 -0.000000 -0.000000 -0.000000  0.148159
  2O   2px        0.000000  0.000000  0.728829 -0.201194  0.441847 -0.000000
  2O   2py       -0.000000 -0.000000 -0.000000  0.000000  0.000000 -0.362610
  2O   3pz       -0.000000 -0.000000  0.000000  0.000000  0.000000  0.103099
  2O   3px       -0.000000  0.000000  1.810788  0.723817  0.862197  0.000000
  2O   3py        0.000000  0.000000  0.000000 -0.000000 -0.000000 -0.252329
  2O   1dz2      -0.000000 -0.006687  0.010863 -0.005367  0.007969  0.000000
  2O   1dxz       0.000000  0.000000 -0.000000 -0.000000 -0.000000 -0.011301
  2O   1dyz       0.007720 -0.000000  0.000000  0.000000  0.000000  0.000000
  2O   1dx2y2    -0.000000 -0.003861 -0.018814  0.009296 -0.013803 -0.000000
  2O   1dxy      -0.000000 -0.000000 -0.000000  0.000000  0.000000  0.027660
  2O   2dz2      -0.000000 -0.079066 -0.039061 -0.094715 -0.012076  0.000000
  2O   2dxz       0.000000 -0.000000 -0.000000  0.000000  0.000000 -0.031623
  2O   2dyz       0.091177 -0.000000  0.000000  0.000000  0.000000  0.000000
  2O   2dx2y2    -0.000000 -0.045649  0.067656  0.164052  0.020917 -0.000000
  2O   2dxy      -0.000000 -0.000000 -0.000000 -0.000000 -0.000000  0.077397
  2O   1f0       -0.000000  0.000000 -0.000000 -0.000000 -0.000000 -0.001529
  2O   1f+1      -0.000000 -0.001908 -0.001003 -0.006245 -0.000876  0.000000
  2O   1f-1       0.000000 -0.000000  0.000000  0.000000  0.000000  0.001530
  2O   1f+2       0.000000 -0.000000  0.000000  0.000000  0.000000  0.001975
  2O   1f-2       0.002405 -0.000000  0.000000  0.000000  0.000000  0.000000
  2O   1f+3       0.000000  0.001478 -0.001295 -0.008062 -0.001131  0.000000
  2O   1f-3       0.000000  0.000000  0.000000  0.000000  0.000000  0.005919
                     30        31        32        33        34        35   
                   0.87677   1.19872   1.26724   1.26724   1.28653   1.28656
                   0.00000   0.00000   0.00000   0.00000   0.00000   0.00000
                  --------  --------  --------  --------  --------  --------
  0C   1s         0.000000  0.120246  0.000000  0.000000 -0.000000  0.000000
  0C   2s         0.000000  0.338769  0.000000  0.000000 -0.000000  0.000000
  0C   3s        -0.000000 -2.766971 -0.000000 -0.000000 -0.000000  0.000000
  0C   4s         0.000000  7.347406  0.000000  0.000000  0.000000 -0.000000
  0C   5s        -0.000000 -0.155622  0.000000 -0.000000 -0.000000  0.000000
  0C   1pz        0.000000 -0.000000  0.340169  1.184031  0.000000 -0.000000
  0C   1px        0.000000  0.000000  0.000000 -0.000000  0.000000 -0.000000
  0C   1py        0.000000  0.000000 -1.184031  0.340169  0.000000  0.000000
  0C   2pz       -0.000000  0.000000 -0.530563 -1.846737 -0.000000  0.000000
  0C   2px       -0.000000 -0.000000 -0.000000  0.000000 -0.000000  0.000000
  0C   2py       -0.000000 -0.000000  1.846737 -0.530563 -0.000000 -0.000000
  0C   3pz       -0.000000 -0.000000  0.227938  0.793385  0.000000 -0.000000
  0C   3px       -0.000000 -0.000000 -0.000000  0.000000 -0.000000  0.000000
  0C   3py        0.000000  0.000000 -0.793385  0.227938  0.000000  0.000000
  0C   1dz2      -0.000000 -0.056777 -0.000000 -0.000000  0.000000  0.000000
  0C   1dxz       0.024310 -0.000000 -0.000000 -0.000000 -0.000000 -0.000000
  0C   1dyz       0.000000  0.000000 -0.000000  0.000000  0.000000  0.000000
  0C   1dx2y2     0.000000  0.098340  0.000000  0.000000 -0.000000 -0.000000
  0C   1dxy       0.009933  0.000000  0.000000 -0.000000 -0.000000  0.000000
  0C   2dz2      -0.000000  0.102314 -0.000000  0.000000 -0.000000  0.000000
  0C   2dxz       1.246155  0.000000  0.000000  0.000000 -0.000000  0.000000
  0C   2dyz       0.000000  0.000000  0.000000  0.000000 -0.000000 -0.000000
  0C   2dx2y2     0.000000 -0.177214  0.000000 -0.000000  0.000000 -0.000000
  0C   2dxy       0.509166  0.000000 -0.000000 -0.000000  0.000000 -0.000000
  0C   1f0        0.000000 -0.000000  0.015838  0.055127  0.000000 -0.000000
  0C   1f+1       0.000000  0.000000  0.000000 -0.000000  0.000000  0.101625
  0C   1f-1       0.000000  0.000000 -0.022572  0.006485  0.000000  0.000000
  0C   1f+2      -0.000000  0.000000 -0.020471 -0.071253 -0.000000  0.000000
  0C   1f-2       0.000000 -0.000000 -0.000000  0.000000 -0.128497  0.000000
  0C   1f+3       0.000000  0.000000  0.000000 -0.000000  0.000000 -0.078718
  0C   1f-3       0.000000  0.000000 -0.087215  0.025057  0.000000  0.000000
  1O   1s        -0.000000 -0.018441 -0.000000 -0.000000  0.000000  0.000000
  1O   2s        -0.000000 -0.046917 -0.000000 -0.000000  0.000000  0.000000
  1O   3s        -0.000000  0.120204 -0.000000  0.000000 -0.000000  0.000000
  1O   4s         0.000000  0.475415  0.000000 -0.000000  0.000000 -0.000000
  1O   5s         0.000000 -2.712092  0.000000 -0.000000  0.000000 -0.000000
  1O   1pz       -0.153999  0.000000  0.011435  0.039800  0.000000 -0.000000
  1O   1px       -0.000000 -0.106519 -0.000000 -0.000000 -0.000000  0.000000
  1O   1py       -0.062922  0.000000 -0.039800  0.011435  0.000000  0.000000
  1O   2pz       -0.362610 -0.000000  0.053681  0.186849  0.000000 -0.000000
  1O   2px       -0.000000  0.147110 -0.000000  0.000000 -0.000000  0.000000
  1O   2py       -0.148159  0.000000 -0.186849  0.053681  0.000000  0.000000
  1O   3pz       -0.252329 -0.000000 -0.005819 -0.020256 -0.000000  0.000000
  1O   3px       -0.000000  1.541146 -0.000000  0.000000 -0.000000  0.000000
  1O   3py       -0.103099 -0.000000  0.020256 -0.005819 -0.000000  0.000000
  1O   1dz2      -0.000000  0.002342 -0.000000  0.000000  0.000000  0.002438
  1O   1dxz      -0.027660 -0.000000  0.003515  0.012236  0.000000 -0.000000
  1O   1dyz       0.000000  0.000000  0.000000  0.000000 -0.002735  0.000000
  1O   1dx2y2     0.000000 -0.004056  0.000000 -0.000000  0.000000  0.001408
  1O   1dxy      -0.011301  0.000000 -0.012236  0.003515  0.000000  0.000000
  1O   2dz2      -0.000000  0.123410 -0.000000  0.000000  0.000000  0.573950
  1O   2dxz      -0.077397  0.000000 -0.031200 -0.108597 -0.000000  0.000000
  1O   2dyz       0.000000 -0.000000 -0.000000  0.000000 -0.662796  0.000000
  1O   2dx2y2     0.000000 -0.213752  0.000000 -0.000000  0.000000  0.331370
  1O   2dxy      -0.031623 -0.000000  0.108597 -0.031200 -0.000000 -0.000000
  1O   1f0        0.003743  0.000000 -0.007711 -0.026840 -0.000000  0.000000
  1O   1f+1       0.000000 -0.018982  0.000000 -0.000000  0.000000 -0.003950
  1O   1f-1       0.000625 -0.000000  0.010955 -0.003147 -0.000000 -0.000000
  1O   1f+2      -0.004835 -0.000000  0.009954  0.034647  0.000000 -0.000000
  1O   1f-2      -0.000000  0.000000  0.000000 -0.000000  0.005062 -0.000000
  1O   1f+3       0.000000 -0.024506  0.000000 -0.000000  0.000000  0.003060
  1O   1f-3       0.002419 -0.000000  0.042435 -0.012192 -0.000000 -0.000000
  2O   1s         0.000000 -0.018441 -0.000000 -0.000000  0.000000 -0.000000
  2O   2s         0.000000 -0.046917 -0.000000 -0.000000  0.000000 -0.000000
  2O   3s         0.000000  0.120204  0.000000 -0.000000  0.000000 -0.000000
  2O   4s        -0.000000  0.475415 -0.000000  0.000000 -0.000000  0.000000
  2O   5s        -0.000000 -2.712092 -0.000000  0.000000 -0.000000  0.000000
  2O   1pz        0.153999  0.000000  0.011435  0.039800  0.000000 -0.000000
  2O   1px        0.000000  0.106519 -0.000000  0.000000 -0.000000  0.000000
  2O   1py        0.062922  0.000000 -0.039800  0.011435  0.000000 -0.000000
  2O   2pz        0.362610 -0.000000  0.053681  0.186849  0.000000 -0.000000
[...]
Linear momentum (velocity) perturbation ...  NO
Spin-orbit coupling perturbation        ...  NO
Choice of electric origin               ... Center of mass
Position of electric origin             ...    -0.000000    -0.000000     0.000000
Choice of magnetic origin               ... GIAO
Position of magnetic origin             ...     0.000000     0.000000     0.000000
Nuclear geometric perturbations         ... YES (   9 perturbations)
Nucleus-orbit perturbations             ...  NO (   0 perturbations)
Spin-dipole/Fermi contact perturbations ...  NO (   0 perturbations)

Total number of real perturbations      ...      9
Total number of imaginary perturbations ...      0
Total number of triplet perturbations   ...      0
Total number of SOC perturbations       ...      0


                                **********************
                                * REAL PERTURBATIONS *
                                **********************



-------------------
SHARK CP-SCF DRIVER
-------------------

Dimension of the orbital basis          ...     93
Dimension of the CPSCF-problem          ...    902
Number of operators                     ...      1
Max. number of iterations               ...    128
Convergence Tolerance                   ... 1.0e-04
Number of perturbations                 ...      9
Perturbation type                       ... REAL

----------------------------
POPLE LINEAR EQUATION SOLVER
----------------------------

  ITERATION   0:   ||err||_max =   7.0183e-01 (   0.3 sec   0/  9 done)
  ITERATION   1:   ||err||_max =   6.0352e-02 (   0.3 sec   0/  9 done)
  ITERATION   2:   ||err||_max =   8.8617e-03 (   0.3 sec   0/  9 done)
  ITERATION   3:   ||err||_max =   1.5011e-03 (   0.3 sec   6/  9 done)
  ITERATION   4:   ||err||_max =   7.6140e-04 (   0.2 sec   7/  9 done)
  ITERATION   5:   ||err||_max =   1.0739e-04 (   0.2 sec   7/  9 done)
  ITERATION   6:   ||err||_max =   1.0528e-05 (   0.2 sec   9/  9 done)

CP-SCF equations solved in   1.7 sec
Response densities calculated in   0.0 sec

Maximum memory used throughout the entire SCFRESP-calculation: 12.7 MB

------------------------------------------------------------------------------
                              ORCA PROPERTY CALCULATIONS
------------------------------------------------------------------------------

GBWName                                 ... co2_opt.gbw
Number of atoms                         ...      3
Number of basis functions               ...     93
Max core memory                         ...   2000 MB

Electric properties:
Dipole moment                           ... YES
Quadrupole moment                       ...  NO
Static polarizability (Dipole/Dipole)   ...  NO
Static polarizability (Dipole/Quad.)    ...  NO
Static polarizability (Quad./Quad.)     ...  NO
Static polarizability (Velocity)        ...  NO

Atomic electric properties:
Dipole moment                           ...  NO
Quadrupole moment                       ...  NO
Static polarizability                   ...  NO

Choice of electric origin               ... Center of mass
Position of electric origin             ...    -0.000000    -0.000000     0.000000

General magnetic properties:
Magnetizability                         ...  NO

EPR properties:
g-Tensor (aka g-matrix)                 ...  NO
Zero-Field splitting spin-orbit         ...  NO
Zero-field splitting spin-spin          ...  NO
Hyperfine couplings                     ...  NO (   0 nuclei)
Quadrupole couplings                    ...  NO (   0 nuclei)
Contact density                         ...  NO (   0 nuclei)

NMR properties:
Chemical shifts                         ...  NO (   0 nuclei)
Spin-rotation constants                 ...  NO (   0 nuclei)
Spin-spin couplings                     ...  NO (   0 nuclei,    0 pairs)

Choice of magnetic origin               ... GIAO
Position of magnetic origin             ...     0.000000     0.000000     0.000000

Properties with geometric perturbations:
SCF Hessian                             ... YES
IR spectrum                             ... YES
VCD spectrum                            ...  NO
X-ray spectroscopy properties:
SCF XES/XAS/RIXS spectra                ...  NO


-------------
DIPOLE MOMENT
-------------

Method             : SCF
Type of density    : Electron Density
Multiplicity       :   1
Irrep              :   0
Energy             :  -188.5873520945914663 Eh
Relativity type    : 
Basis              : AO
                                X                 Y                 Z
Electronic contribution:      0.000010159       0.000000356      -0.000000210
Nuclear contribution   :     -0.000000003      -0.000000003       0.000000002
                        -----------------------------------------
Total Dipole Moment    :      0.000010156       0.000000353      -0.000000208
                        -----------------------------------------
Magnitude (a.u.)       :      0.000010164
Magnitude (Debye)      :      0.000025835



--------------------
Rotational spectrum 
--------------------
 
Rotational constants in cm-1:             0.000000             0.391562             0.391562 
Rotational constants in MHz :             0.000000         11738.738517         11738.738517 

Dipole components along the rotational axes: 
x,y,z [a.u.] :     0.000010     0.000000     0.000000 
x,y,z [Debye]:     0.000026     0.000001     0.000000 

 

Dipole moment calculation done in   0.0 sec 

-----------
SCF HESSIAN
-----------

Occupied/Occupied contributions to the Hessian:
   => Occupied/Occupied contributions              ... done (  0.0 sec)
Perturbed density contributions to the Hessian:
   => Perturbed density contributions              ... done (  0.0 sec)
Explicit contributions to the Hessian:
   => Nuclear repulsion Hessian                    ... done (  0.0 sec)
   => HCore and overlap Hessian                    ... done (  0.1 sec)
   => RI-J Hessian                                 ... done (  0.6 sec)
   => COSX Hessian                                 ... done ( 46.8 sec)
   => XC-Hessian                                   ... done (  1.5 sec)
   => Explicit contributions done
Dipole derivatives                                 ... done (  0.0 sec)
Mass weighting the Hessian           ... done
Calculating normal modes             ... done
Scaling frequencies                  ... done

-----------------------
VIBRATIONAL FREQUENCIES
-----------------------

Scaling factor for frequencies =  1.000000000  (already applied!)

     0:       0.00 cm**-1
     1:       0.00 cm**-1
     2:       0.00 cm**-1
     3:       0.00 cm**-1
     4:       0.00 cm**-1
     5:     676.20 cm**-1
     6:     676.20 cm**-1
     7:    1371.12 cm**-1
     8:    2408.39 cm**-1


------------
NORMAL MODES
------------

These modes are the Cartesian displacements weighted by the diagonal matrix
M(i,i)=1/sqrt(m[i]) where m[i] is the mass of the displaced atom
Thus, these vectors are normalized but *not* orthogonal

                  0          1          2          3          4          5    
      0       0.000000   0.000000   0.000000   0.000000   0.000000   0.000000
      1       0.000000   0.000000   0.000000   0.000000   0.000000  -0.796211
      2       0.000000   0.000000   0.000000   0.000000   0.000000  -0.382362
      3       0.000000   0.000000   0.000000   0.000000   0.000000   0.000000
      4       0.000000   0.000000   0.000000   0.000000   0.000000   0.298872
      5       0.000000   0.000000   0.000000   0.000000   0.000000   0.143526
      6       0.000000   0.000000   0.000000   0.000000   0.000000  -0.000000
      7       0.000000   0.000000   0.000000   0.000000   0.000000   0.298871
      8       0.000000   0.000000   0.000000   0.000000   0.000000   0.143526
                  6          7          8    
      0       0.000000   0.000001   0.883262
      1       0.382362   0.000000   0.000000
      2      -0.796211  -0.000001   0.000000
      3      -0.000000   0.707106  -0.331548
      4      -0.143526  -0.000000   0.000000
      5       0.298872   0.000000  -0.000000
      6       0.000000  -0.707107  -0.331547
      7      -0.143526  -0.000000  -0.000000
      8       0.298871   0.000000   0.000000


-----------
IR SPECTRUM
-----------

 Mode   freq       eps      Int      T**2         TX        TY        TZ
       cm**-1   L/(mol*cm) km/mol    a.u.
----------------------------------------------------------------------------
  5:    676.20   0.006361   32.15  0.002936  ( 0.000000 -0.048841 -0.023455)
  6:    676.20   0.006361   32.15  0.002936  ( 0.000000  0.023455 -0.048841)
  7:   1371.12   0.000000    0.00  0.000000  ( 0.000001  0.000000 -0.000000)
  8:   2408.39   0.128352  648.64  0.016631  ( 0.128961  0.000000  0.000000)

* The epsilon (eps) is given for a Dirac delta lineshape.
** The dipole moment derivative (T) already includes vibrational overlap.

The first frequency considered to be a vibration is 5
The total number of vibrations considered is 4


--------------------------
THERMOCHEMISTRY AT 298.15K
--------------------------

Temperature         ...   298.15 K
Pressure            ...     1.00 atm
Total Mass          ...    44.01 AMU
Quasi RRHO          ...     True
Cut-Off Frequency   ...     1.00 cm^-1
The molecule is recognized as being linear

Throughout the following assumptions are being made:
  (1) The electronic state is orbitally nondegenerate
  (2) There are no thermally accessible electronically excited states
  (3) Hindered rotations indicated by low frequency modes are not
      treated as such but are treated as vibrations and this may
      cause some error
  (4) All equations used are the standard statistical mechanics
      equations for an ideal gas
  (5) All vibrations are strictly harmonic

freq.     676.20  E(vib)   ...       0.08 
freq.     676.20  E(vib)   ...       0.08 
freq.    1371.12  E(vib)   ...       0.01 
freq.    2408.39  E(vib)   ...       0.00 

------------
INNER ENERGY
------------

The inner energy is: U= E(el) + E(ZPE) + E(vib) + E(rot) + E(trans)
    E(el)   - is the total energy from the electronic structure calculation
              = E(kin-el) + E(nuc-el) + E(el-el) + E(nuc-nuc)
    E(ZPE)  - the the zero temperature vibrational energy from the frequency calculation
    E(vib)  - the the finite temperature correction to E(ZPE) due to population
              of excited vibrational states
    E(rot)  - is the rotational thermal energy
    E(trans)- is the translational thermal energy

Summary of contributions to the inner energy U:
Electronic energy                ...   -188.58735209 Eh
Zero point energy                ...      0.01169133 Eh       7.34 kcal/mol
Thermal vibrational correction   ...      0.00025369 Eh       0.16 kcal/mol
Thermal rotational correction    ...      0.00094418 Eh       0.59 kcal/mol
Thermal translational correction ...      0.00141627 Eh       0.89 kcal/mol
-----------------------------------------------------------------------
Total thermal energy                   -188.57304663 Eh


Summary of corrections to the electronic energy:
(perhaps to be used in another calculation)
Total thermal correction                  0.00261414 Eh       1.64 kcal/mol
Non-thermal (ZPE) correction              0.01169133 Eh       7.34 kcal/mol
-----------------------------------------------------------------------
Total correction                          0.01430547 Eh       8.98 kcal/mol


--------
ENTHALPY
--------

The enthalpy is H = U + kB*T
                kB is Boltzmann's constant
Total thermal energy              ...   -188.57304663 Eh 
Thermal Enthalpy correction       ...      0.00094421 Eh       0.59 kcal/mol
-----------------------------------------------------------------------
Total Enthalpy                    ...   -188.57210242 Eh


Note: Rotational entropy computed according to Herzberg 
Infrared and Raman Spectra, Chapter V,1, Van Nostrand Reinhold, 1945 
Point Group:  D(inf)h, Symmetry Number:   1  
Rotational constants in cm-1:     0.000000     0.391562     0.391562 

Vibrational entropy computed according to the QRRHO of S. Grimme
Chem.Eur.J. 2012 18 9955 using a reference frequency of 100.0 cm-1


-------
ENTROPY
-------

The entropy contributions are T*S = T*(S(el)+S(vib)+S(rot)+S(trans))
     S(el)   - electronic entropy
     S(vib)  - vibrational entropy
     S(rot)  - rotational entropy
     S(trans)- translational entropy
The entropies will be listed as multiplied by the temperature to get
units of energy

Electronic entropy                ...      0.00000000 Eh      0.00 kcal/mol
Vibrational entropy               ...      0.00032893 Eh      0.21 kcal/mol
Rotational entropy                ...      0.00686554 Eh      4.31 kcal/mol
Translational entropy             ...      0.01770880 Eh     11.11 kcal/mol
-----------------------------------------------------------------------
Final entropy term                ...      0.02490326 Eh     15.63 kcal/mol

In case the symmetry of your molecule has not been determined correctly
or in case you have a reason to use a different symmetry number we print 
out the resulting rotational entropy values for sn=1,12:

 non-linear molecules -----------------------------------
|  sn= 1 | S(rot)=      -0.00378472 Eh     -2.37 kcal/mol|
|  sn= 2 | S(rot)=      -0.00443918 Eh     -2.79 kcal/mol|
|  sn= 3 | S(rot)=      -0.00482201 Eh     -3.03 kcal/mol|
|  sn= 4 | S(rot)=      -0.00509364 Eh     -3.20 kcal/mol|
|  sn= 5 | S(rot)=      -0.00530432 Eh     -3.33 kcal/mol|
|  sn= 6 | S(rot)=      -0.00547647 Eh     -3.44 kcal/mol|
|  sn= 7 | S(rot)=      -0.00562201 Eh     -3.53 kcal/mol|
|  sn= 8 | S(rot)=      -0.00574809 Eh     -3.61 kcal/mol|
|  sn= 9 | S(rot)=      -0.00585930 Eh     -3.68 kcal/mol|
|  sn=10 | S(rot)=      -0.00595878 Eh     -3.74 kcal/mol|
|  sn=11 | S(rot)=      -0.00604877 Eh     -3.80 kcal/mol|
|  sn=12 | S(rot)=      -0.00613093 Eh     -3.85 kcal/mol|
 linear molecules ---------------------------------------
|  Dinfh | S(rot)=       0.00621108 Eh      3.90 kcal/mol|
|  Cinfv | S(rot)=       0.00686554 Eh      4.31 kcal/mol|
 --------------------------------------------------------


-------------------
GIBBS FREE ENERGY
-------------------

The Gibbs free energy is G = H - T*S

Total enthalpy                    ...   -188.57210242 Eh 
Total entropy correction          ...     -0.02490326 Eh    -15.63 kcal/mol
-----------------------------------------------------------------------
Final Gibbs free energy         ...   -188.59700568 Eh

For completeness - the Gibbs free energy minus the electronic energy
G-E(el)                           ...     -0.00965359 Eh     -6.06 kcal/mol


Maximum memory used throughout the entire PROP-calculation: 17.9 MB

--------------------------------
SUGGESTED CITATIONS FOR THIS RUN
--------------------------------

Below you find a list of papers that are relevant to this ORCA run
We neither can nor want to force you to cite these papers, but we appreciate if you do
You receive ORCA, which is the product of decades of hard work by many enthusiastic individuals, for free
The only thing we kindly ask in return is that you cite our papers,
We deeply appreciate it, if you show your appreciation for ORCA by not just citing the generic ORCA reference.

Please note that relegating all ORCA citations to the supporting information does *not* help us.
SI sections are not indexed - citations you put there will not count into any citation statistics
But we need these citations in order to attract the funding resources that allow us to do what we are doing

Therefore, if you are a happy ORCA user, please consider citing a few of the papers listed below in the main body of your paper

In addition to the list printed below, the program has created the file co2_opt.bibtex that contains the list in bibtex format
You can import this file easily into all common literature databanks and citation aid programs


List of essential papers. We consider these as the minimum necessary citations

  1. Neese,F.
     Software update: the ORCA program system, version 5.0
     WIRES Comput. Molec. Sci., 2022 12(1)e1606
     doi.org/10.1002/wcms.1606

List of papers to cite with high priority. The work reported in these papers was absolutely
necessary for this run to complete.
Our perspective: the developers of density functionals and basis sets usually get cited in chemistry papers
Good! But without the algorithms to do something with them, the functionals or basis sets would not do anything.
Hence, in our opinion, the algorithm design and method developments papers are equally worthy of getting cited

  1. Neese,F.
     An improvement of the resolution of the identity approximation for the formation of the Coulomb matrix
     J. Comp. Chem., 2003 24(14)1740-1747
     doi.org/10.1002/jcc.10318
  2. Neese,F.; Wennmohs,F.; Hansen,A.; Becker,U.
     Efficient, approximate and parallel Hartree-Fock and hybrid DFT calculations. A 'chain-of-spheres' algorithm for the Hartree-Fock exchange
     Chem. Phys., 2009 356(1-3)98-109
     doi.org/10.1016/j.chemphys.2008.10.036
  3. Bykov,D.; Petrenko,T.; Izsak,R.; Kossmann,S.; Becker,U.; Valeev,E.; Neese,F.
     Efficient implementation of the analytic second derivatives of Hartree-Fock and hybrid DFT energies: a detailed analysis of different approximations
     Molec. Phys., 2015 113 1961-1977
     doi.org/10.1080/00268976.2015.1025114
  4. Helmich-Paris,B.; de Souza,B.; Neese,F.; Izsák,R.
     An improved chain of spheres for exchange algorithm
     J. Chem. Phys., 2021 155 104109
     doi.org/doi: 10.1063/5.0058766.
  5. Neese,F.
     The SHARK Integral Generation and Digestion System
     J. Comp. Chem., 2022  1-16
     doi.org/10.1002/jcc.26942

List of suggested additional citations. These are papers that are important in the 'surrounding' of 
of this run, or papers that preceded the highly important papers. If you like your results we are grateful for a citation.

  1. Izsak,R.; Neese,F.
     An overlap fitted chain of spheres exchange method
     J. Chem. Phys., 2011 135 144105
     doi.org/10.1063/1.3646921
  2. Izsak,R.; Hansen,A.; Neese,F.
     The resolution of identity and chain of spheres approximations for the LPNO-CCSD singles Fock term
     Molec. Phys., 2012 110 2413-2417
     doi.org/10.1080/00268976.2012.687466
  3. Neese,F.
     The ORCA program system
     WIRES Comput. Molec. Sci., 2012 2(1)73-78
     doi.org/10.1002/wcms.81
  4. Izsak,R.; Neese,F.; Klopper,W.
     Robust fitting techniques in the chain of spheres approximation to the Fock exchange: The role of the complementary space
     J. Chem. Phys., 2013 139 
     doi.org/10.1063/1.4819264
  5. Neese,F.
     Software update: the ORCA program system, version 4.0
     WIRES Comput. Molec. Sci., 2018 8(1)1-6
     doi.org/10.1002/wcms.1327
  6. Neese,F.; Wennmohs,F.; Becker,U.; Riplinger,C.
     The ORCA quantum chemistry program package
     J. Chem. Phys., 2020 152 Art. No. L224108
     doi.org/10.1063/5.0004608

List of optional additional citations

  1. Neese,F.
     Approximate second-order SCF convergence for spin unrestricted wavefunctions
     Chem. Phys. Lett., 2000 325(1-3)93-98
     doi.org/10.1016/s0009-2614(00)00662-x

Timings for individual modules:

Sum of individual times          ...       88.587 sec (=   1.476 min)
Startup calculation              ...        1.095 sec (=   0.018 min)   1.2 %
SCF iterations                   ...       16.685 sec (=   0.278 min)  18.8 %
Property integrals               ...        5.490 sec (=   0.092 min)   6.2 %
SCF Response                     ...        1.794 sec (=   0.030 min)   2.0 %
Property calculations            ...       49.066 sec (=   0.818 min)  55.4 %
SCF Gradient evaluation          ...       14.447 sec (=   0.241 min)  16.3 %
Geometry relaxation              ...        0.009 sec (=   0.000 min)   0.0 %
                             ****ORCA TERMINATED NORMALLY****
TOTAL RUN TIME: 0 days 0 hours 2 minutes 24 seconds 526 msec
