
                                 *****************
                                 * O   R   C   A *
                                 *****************

                                            #,                                       
                                            ###                                      
                                            ####                                     
                                            #####                                    
                                            ######                                   
                                           ########,                                 
                                     ,,################,,,,,                         
                               ,,#################################,,                 
                          ,,##########################################,,             
                       ,#########################################, ''#####,          
                    ,#############################################,,   '####,        
                  ,##################################################,,,,####,       
                ,###########''''           ''''###############################       
              ,#####''   ,,,,##########,,,,          '''####'''          '####       
            ,##' ,,,,###########################,,,                        '##       
           ' ,,###''''                  '''############,,,                           
         ,,##''                                '''############,,,,        ,,,,,,###''
      ,#''                                            '''#######################'''  
     '                                                          ''''####''''         
             ,#######,   #######,   ,#######,      ##                                
            ,#'     '#,  ##    ##  ,#'     '#,    #''#        ,####,   ,####,        
            ##       ##  ##   ,#'  ##            #'  '#       #'       #'  '#        
            ##       ##  #######   ##           ,######,      #####,   #    #        
            '#,     ,#'  ##    ##  '#,     ,#' ,#      #,     #,   #   #,  ,#        
             '#######'   ##     ##  '#######'  #'      '#     '####' # '####'        



                #########################################################
                #                        -***-                          #
                #          Department of theory and spectroscopy        #
                #                                                       #
                #                      Frank Neese                      #
                #                                                       #
                #     Directorship, Architecture, Infrastructure        #
                #                    SHARK, DRIVERS                     #
                #        Core code/Algorithms in most modules           #
                #                                                       #
                #        Max Planck Institute fuer Kohlenforschung      #
                #                Kaiser Wilhelm Platz 1                 #
                #                 D-45470 Muelheim/Ruhr                 #
                #                      Germany                          #
                #                                                       #
                #                  All rights reserved                  #
                #                        -***-                          #
                #########################################################


                         Program Version 6.0.1  -  RELEASE   -


 With contributions from (in alphabetic order):
[Max-Planck-Institut fuer Kohlenforschung]                               
  Daniel Aravena         : Magnetic Suceptibility                        
  Michael Atanasov       : Ab Initio Ligand Field Theory (pilot matlab implementation)
  Alexander A. Auer      : GIAO ZORA, VPT2 properties, NMR spectrum      
  Ute Becker             : All parallelization in ORCA, NUMFREQ, NUMCALC 
  Giovanni Bistoni       : ED, misc. LED, open-shell LED, HFLD           
  Martin Brehm           : Molecular dynamics                            
  Dmytro Bykov           : pre 5.0 version of the SCF Hessian            
  Marcos Casanova-Páez   : Triplet and SCS-CIS(D). UHF-(DLPNO)-IP/EA/STEOM-CCSD. UHF-CVS-IP/STEOM-CCSD   
  Vijay G. Chilkuri      : MRCI spin determinant printing, contributions to CSF-ICE 
  Pauline Colinet        : FMM embedding                                 
  Dipayan Datta          : RHF DLPNO-CCSD density                        
  Achintya Kumar Dutta   : EOM-CC, STEOM-CC                              
  Nicolas Foglia         : Exact transition moments, OPA infrastructure, MCD improvements    
  Dmitry Ganyushin       : Spin-Orbit,Spin-Spin,Magnetic field MRCI      
  Miquel Garcia-Rates    : C-PCM and meta-GGA Hessian, CCSD/C-PCM, Gaussian charge scheme 
  Tiago L. C. Gouveia    : GS-ROHF, GS-ROCIS                             
  Yang Guo               : DLPNO-NEVPT2, F12-NEVPT2, CIM, IAO-localization        
  Andreas Hansen         : Spin unrestricted coupled pair/coupled cluster methods 
  Ingolf Harden          : AUTO-CI MPn and infrastructure                
  Benjamin Helmich-Paris : MC-RPA, TRAH-(SCF,CASSCF), AVAS, COSX integrals, SCF dyn. polar. 
  Lee Huntington         : MR-EOM, pCC                                   
  Robert Izsak           : Overlap fitted RIJCOSX, COSX-SCS-MP3, EOM     
  Riya Kayal             : Wick's Theorem for AUTO-CI, AUTO-CI UHF-CCSDT 
  Emily Kempfer          : AUTO-CI, RHF CISDT and CCSDT                  
  Christian Kollmar      : KDIIS, OOCD, Brueckner-CCSD(T), CCSD density, CASPT2, CASPT2-K, improved NEVPT2 
  Axel Koslowski         : Symmetry handling                             
  Simone Kossmann        : meta-GGA functionals, TD-DFT gradient, OOMP2, (MP2 Hessian; deprecated post 5.0) 
  Lucas Lang             : DCDCAS                                        
  Marvin Lechner         : AUTO-CI (C++ implementation), FIC-MRCC        
  Spencer Leger          : CASSCF response                               
  Dagmar Lenk            : GEPOL surface, SMD, ORCA-2-JSON               
  Dimitrios Liakos       : Extrapolation schemes; Compound Job, initial MDCI parallelization 
  Dimitrios Manganas     : Further ROCIS development; embedding schemes. LFT, Crystal Embedding 
  Dimitrios Pantazis     : SARC Basis sets                               
  Anastasios Papadopoulos: AUTO-CI, single reference methods and gradients 
  Taras Petrenko         : pre 6.0 DFT Hessian and TD-DFT gradient, (ASA, deprecated), ECA, 1-Electron XAS/XES, NRVS 
  Peter Pinski           : DLPNO-MP2, DLPNO-MP2 Gradient                 
  Christoph Reimann      : Effective Core Potentials                     
  Marius Retegan         : Local ZFS, SOC                                
  Christoph Riplinger    : Optimizer, TS searches, QM/MM, DLPNO-CCSD(T), (RO)-DLPNO pert. Triples 
  Michael Roemelt        : Original ROCIS implementation                 
  Masaaki Saitow         : Open-shell DLPNO-CCSD energy and density      
  Barbara Sandhoefer     : DKH picture change effects                    
  Kantharuban Sivalingam : CASSCF convergence/infrastructure, NEVPT2 and variants, FIC-MRCI 
  Bernardo de Souza      : ESD, SOC TD-DFT                               
  Georgi L. Stoychev     : AutoAux, RI-MP2 NMR, DLPNO-MP2 response, X2C  
  Van Anh Tran           : RI-MP2 g-tensors                              
  Willem Van den Heuvel  : Paramagnetic NMR                              
  Zikuan Wang            : NOTCH, Electric field optimization            
  Frank Wennmohs         : Technical directorship and infrastructure     
  Hang Xu                : AUTO-CI-Response properties                   
                                                                         
[FACCTs GmbH]                                                            
  Markus Bursch, Miquel Garcia-Rates, Christoph Riplinger, Bernardo de Souza, Georgi L. Stoychev 
                                                                 
  APM, Basis sets (HGBS, AHGBS, def-TZVP (Ac-Lr), def2-XVPD (La-Lu)), CI-OPT, improved COSX, DLPNO-Multilevel,           
  DOCKER, DRACO, updates on ESD, GOAT, IRC, LR-CPCM, MBIS, meta-GGA TD-DFT gradient, ML-optimized integration grids, 
  MM, NACMEs, nearIR, NEB, NEB-TS, NL-DFT gradient (VV10), 2- and 3-layer-ONIOM, interface openCOSMO-RS, QMMM,   
  Crystal-QMMM, SF, symmetry and pop. for TD-DFT, r2SCAN hybrids, SOLVATOR                                   
                                                                         
[Other institutions]                                                     
  V. Asgeirsson          : NEB                                           
  Christoph Bannwarth    : sTDA-DFT, sTD-DFT, PBEh-3c, B97-3c, D3        
  Sebastian Ehlert       : rSCAN, r2SCAN, r2SCAN-3c, D4, dhf basis sets  
  Marvin Friede          : D4 for Fr, Ra, Ac-Lr                          
  Lars Goerigk           : TD-DFT with DH, B97 family of functionals     
  Stefan Grimme          : VdW corrections, initial TS optimization, DFT functionals, gCP, sTDA/sTD-DF 
  Waldemar Hujo          : DFT-NL                                        
  H. Jonsson             : NEB                                           
  Holger Kruse           : gCP                                           
  Marcel Mueller         : wB97X-3c, vDZP basis set                      
  Hagen Neugebauer       : wr2SCAN                                       
  Tobias Risthaus        : range-separated hybrid DFT                    
  Lukas Wittmann         : regularized MP2, r2SCAN double-hybrids, wr2SCAN        
                                                                         
We gratefully acknowledge several colleagues who have allowed us to      
interface, adapt or use parts of their codes:                            
  Ed Valeev, F. Pavosevic, A. Kumar             : LibInt (2-el integral package), F12 methods 
  Garnet Chan, S. Sharma, J. Yang, R. Olivares  : DMRG                   
  Ulf Ekstrom                                   : XCFun DFT Library      
  Mihaly Kallay                                 : mrcc  (arbitrary order and MRCC methods)
  Frank Weinhold                                : gennbo (NPA and NBO analysis)           
  Simon Mueller                                 : openCOSMO-RS                            
  Christopher J. Cramer and Donald G. Truhlar   : smd solvation model                     
  S Lehtola, MJT Oliveira, MAL Marques          : LibXC Library                           
  Liviu Ungur et al                             : ANISO software                          


 Your calculation uses the libint2 library for the computation of 2-el integrals
 For citations please refer to: http://libint.valeyev.net

 Your ORCA version has been built with support for libXC version: 6.2.2
 For citations please refer to: https://libxc.gitlab.io

 This ORCA versions uses:
   CBLAS   interface :  Fast vector & matrix operations
   LAPACKE interface :  Fast linear algebra routines
   SCALAPACK package :  Parallel linear algebra routines
   Shared memory     :  Shared parallel matrices
   BLAS/LAPACK       :  OpenBLAS 0.3.27  USE64BITINT DYNAMIC_ARCH NO_AFFINITY SkylakeX SINGLE_THREADED
        Core in use  :  SkylakeX
   Copyright (c) 2011-2014, The OpenBLAS Project


Warning: RI is on but no J-basis has been assigned. Assigning Def2/J (nothing to worry about!)
================================================================================

----- Orbital basis set information -----
Your calculation utilizes the basis: def2-SVP
   F. Weigend and R. Ahlrichs, Phys. Chem. Chem. Phys. 7, 3297 (2005).

----- AuxJ basis set information -----
Your calculation utilizes the auxiliary basis: def2/J
   F. Weigend, Phys. Chem. Chem. Phys. 8, 1057 (2006).

================================================================================
                                        WARNINGS
                       Please study these warnings very carefully!
================================================================================

WARNING: Old DensityContainer found on disk!
         Will remove this file - 
         If you want to keep old densities, please start your calculation with a different basename. 


WARNING: Analytical Hessian not available for calculation of RAMAN spectra
       : If you need RAMAN spectra, please choose NumFreq!
       : Will only calculate polarizabilties



================================================================================
                                       INPUT FILE
================================================================================
NAME = job.inp
|  1> ! B3LYP def2-SVP TightSCF Freq
|  2> %output
|  3>   PrintLevel 5
|  4> end
|  5> * xyz 0 1
|  6>    C         -0.0000008287          0.0000000183          0.0000000024
|  7>    O          0.6018162718         -0.0000000107         -0.0000000022
|  8>    O         -0.6018152429         -0.0000000088         -0.0000000013
|  9> *
| 10> %elprop
| 11>  Polar 1
| 12> end
| 13> 
| 14>                          ****END OF INPUT****
================================================================================

                       ****************************
                       * Single Point Calculation *
                       ****************************

---------------------------------
CARTESIAN COORDINATES (ANGSTROEM)
---------------------------------
  C     -0.000001    0.000000    0.000000
  O      0.601816   -0.000000   -0.000000
  O     -0.601815   -0.000000   -0.000000

----------------------------
CARTESIAN COORDINATES (A.U.)
----------------------------
  NO LB      ZA    FRAG     MASS         X           Y           Z
   0 C     6.0000    0    12.011   -0.000002    0.000000    0.000000
   1 O     8.0000    0    15.999    1.137268   -0.000000   -0.000000
   2 O     8.0000    0    15.999   -1.137266   -0.000000   -0.000000

--------------------------------
INTERNAL COORDINATES (ANGSTROEM)
--------------------------------
 C      0   0   0     0.000000000000     0.00000000     0.00000000
 O      1   0   0     0.601817100500     0.00000000     0.00000000
 O      1   2   0     0.601814414200   179.99999488     0.00000000

---------------------------
INTERNAL COORDINATES (A.U.)
---------------------------
 C      0   0   0     0.000000000000     0.00000000     0.00000000
 O      1   0   0     1.137269502656     0.00000000     0.00000000
 O      1   2   0     1.137264426284   179.99999488     0.00000000

---------------------
BASIS SET INFORMATION
---------------------
There are 2 groups of distinct atoms

 Group   1 Type C   : 7s4p1d contracted to 3s2p1d pattern {511/31/1}
 Group   2 Type O   : 7s4p1d contracted to 3s2p1d pattern {511/31/1}

Atom   0C    basis set group =>   1
Atom   1O    basis set group =>   2
Atom   2O    basis set group =>   2

-------------------------
BASIS SET IN INPUT FORMAT
-------------------------

 # Basis set for element : C 
 NewGTO C 
 S 5 
   1    1238.4016938000      0.0055173650
   2     186.2900499200      0.0410888285
   3      42.2511763460      0.1822538213
   4      11.6765579320      0.4682845944
   5       3.5930506482      0.4457581734
 S 1 
   1       0.4024514736      1.0000000000
 S 1 
   1       0.1309018267      1.0000000000
 P 3 
   1       9.4680970621      0.0568883320
   2       2.0103545142      0.3129405934
   3       0.5477100471      0.7606501651
 P 1 
   1       0.1526861379      1.0000000000
 D 1 
   1       0.8000000000      1.0000000000
  end;

 # Basis set for element : O 
 NewGTO O 
 S 5 
   1    2266.1767785000     -0.0053893504
   2     340.8701019100     -0.0402347214
   3      77.3631351670     -0.1800818421
   4      21.4796449400     -0.4682885766
   5       6.6589433124     -0.4469261716
 S 1 
   1       0.8097597567      1.0000000000
 S 1 
   1       0.2553077223      1.0000000000
 P 3 
   1      17.7215043170      0.0626302488
   2       3.8635505440      0.3333113849
   3       1.0480920883      0.7414863830
 P 1 
   1       0.2764154441      1.0000000000
 D 1 
   1       1.2000000000      1.0000000000
  end;

---------------------------------
AUXILIARY/J BASIS SET INFORMATION
---------------------------------
There are 2 groups of distinct atoms

 Group   1 Type C   : 12s5p4d2f1g contracted to 6s4p3d1f1g pattern {711111/2111/211/2/1}
 Group   2 Type O   : 12s5p4d2f1g contracted to 6s4p3d1f1g pattern {711111/2111/211/2/1}

Atom   0C    basis set group =>   1
Atom   1O    basis set group =>   2
Atom   2O    basis set group =>   2

-------------------------------------
AUXILIARY/J BASIS SET IN INPUT FORMAT
-------------------------------------

 # Auxiliary/J basis set for element : C 
 NewAuxJGTO C 
 S 7 
   1    1861.0916331000      0.0134602335
   2     642.9939764000      0.0299160374
   3     235.1105725000      0.1008649584
   4      90.7028894000      0.2370970548
   5      36.7794552000      0.3924037254
   6      15.6046273000      0.3195862154
   7       6.8907294000      0.0530104441
 S 1 
   1       3.1478850000     -1.0000000000
 S 1 
   1       1.4777287000      1.0000000000
 S 1 
   1       0.7076466000      1.0000000000
 S 1 
   1       0.3430122000      1.0000000000
 S 1 
   1       0.1669453000      1.0000000000
 P 2 
   1      13.5472892000     -0.6769313712
   2       5.4669419000     -0.3779500978
 P 1 
   1       2.1751721000      1.0000000000
 P 1 
   1       0.8582194000      1.0000000000
 P 1 
   1       0.3376720000      1.0000000000
 D 2 
   1       5.9287253000     -0.3533329857
   2       1.9809209000     -0.7456525731
 D 1 
   1       0.8055417000     -1.0000000000
 D 1 
   1       0.3531244000     -1.0000000000
 F 2 
   1       1.6755626000      0.6311076882
   2       0.5997536000      0.4968166032
 G 1 
   1       1.0024600000     -1.0000000000
  end;

 # Auxiliary/J basis set for element : O 
 NewAuxJGTO O 
 S 7 
   1    2876.8216605000      0.0168151159
   2    1004.7443032000      0.0340137548
   3     369.7579954000      0.1194951309
   4     142.9442404000      0.2664627624
   5      57.8366425000      0.4202764046
   6      24.3864983000      0.2765077335
   7      10.6622662000      0.0057008815
 S 1 
   1       4.8070437000     -1.0000000000
 S 1 
   1       2.2210770000      1.0000000000
 S 1 
   1       1.0447795000      1.0000000000
 S 1 
   1       0.4968425000      1.0000000000
 S 1 
   1       0.2371384000      1.0000000000
 P 2 
   1      64.2613382000     -0.2731534179
   2      16.3006076000     -0.8168011598
 P 1 
   1       4.3550542000      1.0000000000
 P 1 
   1       1.2019554000      1.0000000000
 P 1 
   1       0.3354196000      1.0000000000
 D 2 
   1       9.2146611000     -0.4661230638
   2       2.8435251000     -0.6600908911
 D 1 
   1       0.9955759000     -1.0000000000
 D 1 
   1       0.3649441000     -1.0000000000
 F 2 
   1       2.6420115000      0.5931563945
   2       0.7345613000      0.5931563945
 G 1 
   1       1.3931000000     -1.0000000000
  end;


Checking for AutoStart:
The File: job.gbw exists
Trying to determine its content:
     ... Fine, the file contains calculation information
     ... Fine, the calculation information was read
     ... Fine, the file contains a basis set
     ... Fine, the basis set was read
     ... Fine, the file contains a geometry
     ... Fine, the geometry was read
     ... Fine, the file contains a set of orbitals
     ... Fine, the orbitals can be read
     => possible old guess file was deleted
     => GBW file was renamed to GES file
     => GES file is set as startup file
     => Guess is set to MORead
     ... now leaving AutoStart

------------------------------------------------------------------------------
                             ORCA STARTUP CALCULATIONS
                           -- RI-GTO INTEGRALS CHOSEN --
------------------------------------------------------------------------------
------------------------------------------------------------------------------
                   ___                                                        
                  /   \      - P O W E R E D   B Y -                         
                 /     \                                                     
                 |  |  |   _    _      __       _____    __    __             
                 |  |  |  | |  | |    /  \     |  _  \  |  |  /  |          
                  \  \/   | |  | |   /    \    | | | |  |  | /  /          
                 / \  \   | |__| |  /  /\  \   | |_| |  |  |/  /          
                |  |  |   |  __  | /  /__\  \  |    /   |      \           
                |  |  |   | |  | | |   __   |  |    \   |  |\   \          
                \     /   | |  | | |  |  |  |  | |\  \  |  | \   \       
                 \___/    |_|  |_| |__|  |__|  |_| \__\ |__|  \__/        
                                                                              
                      - O R C A' S   B I G   F R I E N D -                    
                                      &                                       
                       - I N T E G R A L  F E E D E R -                       
                                                                              
 v1 FN, 2020, v2 2021, v3 2022-2024                                           
------------------------------------------------------------------------------


----------------------
SHARK INTEGRAL PACKAGE
----------------------

Number of atoms                             ...      3
Number of basis functions                   ...     42
Number of shells                            ...     18
Maximum angular momentum                    ...      2
Integral batch strategy                     ... SHARK/LIBINT Hybrid
RI-J (if used) integral strategy            ... SPLIT-RIJ (Revised 2003 algorithm where possible)
Printlevel                                  ...      1
Contraction scheme used                     ... SEGMENTED contraction
Prescreening option                         ... SCHWARTZ
   Thresh                                   ... 2.500e-11
   Tcut                                     ... 2.500e-12
   Tpresel                                  ... 2.500e-12 
Coulomb Range Separation                    ... NOT USED
Exchange Range Separation                   ... NOT USED
Multipole approximations                    ... NOT USED
Finite Nucleus Model                        ... NOT USED
CABS basis                                  ... NOT available
Auxiliary Coulomb fitting basis             ... AVAILABLE
   # of basis functions in Aux-J            ...    147
   # of shells in Aux-J                     ...     45
   Maximum angular momentum in Aux-J        ...      4
Auxiliary J/K fitting basis                 ... NOT available
Auxiliary Correlation fitting basis         ... NOT available
Auxiliary 'external' fitting basis          ... NOT available

Checking pre-screening integrals            ... done (  0.0 sec) Dimension = 18
Check shell pair data                       ... done (  0.0 sec)
Shell pair information
Shell pair cut-off parameter TPreSel        ...   2.5e-12
Total number of shell pairs                 ...       171
Shell pairs after pre-screening             ...       171
Total number of primitive shell pairs       ...       705
Primitive shell pairs kept                  ...       656
          la=0 lb=0:     45 shell pairs
          la=1 lb=0:     54 shell pairs
          la=1 lb=1:     21 shell pairs
          la=2 lb=0:     27 shell pairs
          la=2 lb=1:     18 shell pairs
          la=2 lb=2:      6 shell pairs

Calculating one electron integrals          ... done (  0.0 sec)
Calculating RI/J V-Matrix + Cholesky decomp.... done (  0.0 sec)
Calculating Nuclear repulsion               ... done (  0.0 sec) ENN=    112.550530349873 Eh

Diagonalization of the overlap matrix:
Smallest eigenvalue                        ... 9.156e-04
Time for diagonalization                   ...    0.000 sec
Threshold for overlap eigenvalues          ... 1.000e-07
Number of eigenvalues below threshold      ... 0
Time for construction of square roots      ...    0.000 sec
Total time needed                          ...    0.001 sec

-------------------
DFT GRID GENERATION
-------------------

General Integration Accuracy     IntAcc      ... 4.388
Radial Grid Type                 RadialGrid  ... OptM3 with GC (2021)
Angular Grid (max. ang.)         AngularGrid ... 4 (Lebedev-302)
Angular grid pruning method      GridPruning ... 4 (adaptive)
Weight generation scheme         WeightScheme... mBecke (2022)
Basis function cutoff            BFCut       ... 1.0000e-11
Integration weight cutoff        WCut        ... 1.0000e-14
Partially contracted basis set               ... off
Rotationally invariant grid construction     ... off
Angular grids for H and He will be reduced by one unit

Total number of grid points                  ...    18234
Total number of batches                      ...      286
Average number of points per batch           ...       63
Average number of grid points per atom       ...     6078

--------------------
COSX GRID GENERATION
--------------------

GRIDX 1
-------
General Integration Accuracy     IntAcc      ... 3.816
Radial Grid Type                 RadialGrid  ... OptM3 with GC (2021)
Angular Grid (max. ang.)         AngularGrid ... 1 (Lebedev-50)
Angular grid pruning method      GridPruning ... 4 (adaptive)
Weight generation scheme         WeightScheme... mBecke (2022)
Basis function cutoff            BFCut       ... 1.0000e-11
Integration weight cutoff        WCut        ... 1.0000e-14
Partially contracted basis set               ... on
Rotationally invariant grid construction     ... off
Angular grids for H and He will be reduced by one unit

Total number of grid points                  ...     2280
Total number of batches                      ...       19
Average number of points per batch           ...      120
Average number of grid points per atom       ...      760
UseSFitting                                  ... on

GRIDX 2
-------
General Integration Accuracy     IntAcc      ... 4.020
Radial Grid Type                 RadialGrid  ... OptM3 with GC (2021)
Angular Grid (max. ang.)         AngularGrid ... 2 (Lebedev-110)
Angular grid pruning method      GridPruning ... 4 (adaptive)
Weight generation scheme         WeightScheme... mBecke (2022)
Basis function cutoff            BFCut       ... 1.0000e-11
Integration weight cutoff        WCut        ... 1.0000e-14
Partially contracted basis set               ... on
Rotationally invariant grid construction     ... off
Angular grids for H and He will be reduced by one unit

Total number of grid points                  ...     5600
Total number of batches                      ...       45
Average number of points per batch           ...      124
Average number of grid points per atom       ...     1867
UseSFitting                                  ... on

GRIDX 3
-------
General Integration Accuracy     IntAcc      ... 4.338
Radial Grid Type                 RadialGrid  ... OptM3 with GC (2021)
Angular Grid (max. ang.)         AngularGrid ... 3 (Lebedev-194)
Angular grid pruning method      GridPruning ... 4 (adaptive)
Weight generation scheme         WeightScheme... mBecke (2022)
Basis function cutoff            BFCut       ... 1.0000e-11
Integration weight cutoff        WCut        ... 1.0000e-14
Partially contracted basis set               ... on
Rotationally invariant grid construction     ... off
Angular grids for H and He will be reduced by one unit

Total number of grid points                  ...    12496
Total number of batches                      ...       99
Average number of points per batch           ...      126
Average number of grid points per atom       ...     4165
UseSFitting                                  ... on
Initializing property integral containers    ... done (  0.0 sec)

SHARK setup successfully completed in   0.2 seconds

Maximum memory used throughout the entire STARTUP-calculation: 9.4 MB
-------------------------------------------------------------------------------
                                 ORCA GUESS
                   Start orbitals & Density for SCF / CASSCF
-------------------------------------------------------------------------------

------------
SCF SETTINGS
------------
Hamiltonian:
 Density Functional     Method          .... DFT(GTOs)
 Exchange Functional    Exchange        .... B88
   X-Alpha parameter    XAlpha          ....  0.666667
   Becke's b parameter  XBeta           ....  0.004200
 Correlation Functional Correlation     .... LYP
 LDA part of GGA corr.  LDAOpt          .... VWN-5
 Gradients option       PostSCFGGA      .... off
 Hybrid DFT is turned on
   Fraction HF Exchange ScalHFX         ....  0.200000
   Scaling of DF-GGA-X  ScalDFX         ....  0.720000
   Scaling of DF-GGA-C  ScalDFC         ....  0.810000
   Scaling of DF-LDA-C  ScalLDAC        ....  1.000000
   Perturbative correction              ....  0.000000
   NL short-range parameter             ....  4.800000
 RI-approximation to the Coulomb term is turned on
   Number of AuxJ basis functions       .... 147
   RIJ-COSX (HFX calculated with COS-X)).... on


General Settings:
 Integral files         IntName         .... job
 Hartree-Fock type      HFTyp           .... RHF
 Total Charge           Charge          ....    0
 Multiplicity           Mult            ....    1
 Number of Electrons    NEL             ....   22
 Basis Dimension        Dim             ....   42
 Nuclear Repulsion      ENuc            ....    112.5505303499 Eh

Convergence Acceleration:
 AO-DIIS                CNVDIIS         .... on
   Start iteration      DIISMaxIt       ....    12
   Startup error        DIISStart       ....  0.200000
   # of expansion vecs  DIISMaxEq       ....     5
   Bias factor          DIISBfac        ....   1.050
   Max. coefficient     DIISMaxC        ....  10.000
 MO-DIIS                CNVKDIIS        .... off
 Trust-Rad. Augm. Hess. CNVTRAH         .... auto
   Auto Start mean grad. ratio tolernc. ....  1.125000
   Auto Start start iteration           ....     1
   Auto Start num. interpolation iter.  ....    10
   Max. Number of Micro iterations      ....    24
   Max. Number of Macro iterations      .... Maxiter - #DIIS iter
   Number of Davidson start vectors     ....     2
   Converg. threshold    (grad. norm)   ....   1.000e-05
   Grad. Scal. Fac. for Micro threshold ....   0.100
   Minimum threshold for Micro iter.    ....   1.000e-02
   NR start threshold (gradient norm)   ....   1.000e-04
   Initial trust radius                 ....   0.400
   Minimum AH scaling param. (alpha)    ....   1.000
   Maximum AH scaling param. (alpha)    .... 1000.000
   Quad. conv. algorithm                .... NR
   White noise on init. David. guess    .... on
   Maximum white noise                  ....   0.010
   Pseudo random numbers                .... off
   Inactive MOs                         .... canonical
   Orbital update algorithm             .... Taylor
   Preconditioner                       .... Diag
   Full preconditioner red. dimension   ....   250
 SOSCF                  CNVSOSCF        .... on
   Start iteration      SOSCFMaxIt      ....   150
   Startup grad/error   SOSCFStart      ....  0.003300
   Hessian update       SOSCFHessUp     .... L-BFGS
 Level Shifting         CNVShift        .... on
   Level shift para.    LevelShift      ....    0.2500
   Turn off err/grad.   ShiftErr        ....    0.0010
 Zerner damping         CNVZerner       .... off
 Static damping         CNVDamp         .... on
   Fraction old density DampFac         ....    0.7000
   Max. Damping (<1)    DampMax         ....    0.9800
   Min. Damping (>=0)   DampMin         ....    0.0000
   Turn off err/grad.   DampErr         ....    0.1000

SCF Procedure:
 Maximum # iterations   MaxIter         ....   125
 SCF integral mode      SCFMode         .... Direct
   Integral package                     .... SHARK and LIBINT hybrid scheme
 Reset frequency        DirectResetFreq ....    20
 Integral Threshold     Thresh          ....  2.500e-11 Eh
 Primitive CutOff       TCut            ....  2.500e-12 Eh

Convergence Tolerance:
 Convergence Check Mode ConvCheckMode   .... Total+1el-Energy
 Convergence forced     ConvForced      .... 0
 Energy Change          TolE            ....  1.000e-08 Eh
 1-El. energy change                    ....  1.000e-05 Eh
 Orbital Gradient       TolG            ....  1.000e-05
 Orbital Rotation angle TolX            ....  1.000e-05
 DIIS Error             TolErr          ....  5.000e-07

---------------------
INITIAL GUESS: MOREAD
---------------------
Guess MOs are being read from file: job.ges
Input Geometry matches current geometry (good)
Input basis set matches current basis set (good)
Occupation numbers will be reassigned to an Aufbau configuration
MOs were renormalized
MOs were reorthogonalized (Cholesky)
                      ------------------
                      INITIAL GUESS DONE (   0.0 sec)
                      ------------------
----------------------
INITIAL GUESS ORBITALS
----------------------
                      0         1         2         3         4         5   
                 -19.22322 -19.22274 -10.81274  -1.26948  -1.18517  -0.99984
                   2.00000   2.00000   2.00000   2.00000   2.00000   2.00000
                  --------  --------  --------  --------  --------  --------
  0C   1s         0.004507  0.000032  0.971105  0.000006  0.376325 -0.000000
  0C   2s        -0.043402 -0.000305 -0.131075  0.000013  0.060067  0.000000
  0C   3s         0.002213  0.000016 -0.011607 -0.000001 -0.057279  0.000000
  0C   1pz        0.000000 -0.000000 -0.000000 -0.000000  0.000000 -0.520341
  0C   1px        0.000034 -0.004840 -0.000001 -0.855268  0.000016  0.000000
  0C   1py        0.000000 -0.000000 -0.000000 -0.000000  0.000000  0.062435
  0C   2pz        0.000000  0.000000 -0.000000 -0.000000  0.000000 -0.134277
  0C   2px       -0.000125  0.017844  0.000000 -0.067009  0.000001 -0.000000
  0C   2py        0.000000  0.000000 -0.000000 -0.000000  0.000000  0.016112
  0C   1dz2      -0.004293 -0.000030  0.009501 -0.000002 -0.054567  0.000000
  0C   1dxz       0.000000 -0.000000  0.000000  0.000000 -0.000000 -0.000001
  0C   1dyz      -0.000000 -0.000000  0.000000 -0.000000 -0.000000  0.000000
  0C   1dx2y2     0.007437  0.000052 -0.016457  0.000004  0.094513  0.000000
  0C   1dxy       0.000000 -0.000000  0.000000  0.000000 -0.000000  0.000000
  1O   1s        -0.692123 -0.701921  0.032631 -0.243782 -0.202991  0.000000
  1O   2s         0.029960  0.039992  0.064047 -0.142447 -0.527269 -0.000000
  1O   3s         0.006665 -0.034723  0.035790  0.244623 -0.168699 -0.000000
  1O   1pz        0.000000  0.000000  0.000000 -0.000000  0.000000 -0.363690
  1O   1px       -0.009644 -0.010662 -0.037026  0.264619  0.142304 -0.000000
  1O   1py       -0.000000  0.000000  0.000000 -0.000000  0.000000  0.043639
  1O   2pz        0.000000 -0.000000  0.000000  0.000000 -0.000000  0.042455
  1O   2px       -0.008294  0.001987 -0.015913 -0.132349  0.042670  0.000000
  1O   2py        0.000000  0.000000  0.000000  0.000000 -0.000000 -0.005094
  1O   1dz2      -0.001152 -0.002828 -0.003235  0.031689 -0.010880 -0.000000
  1O   1dxz      -0.000000 -0.000000 -0.000000  0.000000 -0.000000  0.041178
  1O   1dyz       0.000000  0.000000 -0.000000  0.000000  0.000000 -0.000000
  1O   1dx2y2     0.001995  0.004898  0.005603 -0.054887  0.018844  0.000000
  1O   1dxy      -0.000000 -0.000000 -0.000000  0.000000 -0.000000 -0.004941
  2O   1s        -0.701924  0.692120  0.032632  0.243775 -0.203001 -0.000000
  2O   2s         0.030519 -0.039566  0.064046  0.142416 -0.527276 -0.000000
  2O   3s         0.006176  0.034813  0.035789 -0.244633 -0.168691 -0.000000
  2O   1pz       -0.000000 -0.000000  0.000000  0.000000 -0.000000 -0.363696
  2O   1px        0.009793 -0.010525  0.037026  0.264611 -0.142311 -0.000000
  2O   1py       -0.000000 -0.000000  0.000000  0.000000  0.000000  0.043639
  2O   2pz       -0.000000 -0.000000  0.000000 -0.000000 -0.000000  0.042454
  2O   2px        0.008265  0.002104  0.015912 -0.132352 -0.042665  0.000000
  2O   2py       -0.000000 -0.000000  0.000000 -0.000000 -0.000000 -0.005094
  2O   1dz2      -0.001191  0.002811 -0.003235 -0.031689 -0.010879 -0.000000
  2O   1dxz       0.000000  0.000000  0.000000  0.000000  0.000000 -0.041179
  2O   1dyz       0.000000  0.000000 -0.000000  0.000000  0.000000 -0.000000
  2O   1dx2y2     0.002063 -0.004869  0.005603  0.054888  0.018843 -0.000000
  2O   1dxy       0.000000 -0.000000  0.000000  0.000000  0.000000  0.004941
                      6         7         8         9        10        11   
                  -0.99984  -0.52116  -0.37265  -0.37265  -0.34109   0.15343
                   2.00000   2.00000   2.00000   2.00000   2.00000   0.00000
                  --------  --------  --------  --------  --------  --------
  0C   1s        -0.000000 -0.000001  0.000000 -0.000000 -0.294460 -0.058475
  0C   2s        -0.000000  0.000006  0.000000 -0.000000 -0.837954 -0.721109
  0C   3s        -0.000000  0.000001  0.000000 -0.000000 -0.261026 -3.231988
  0C   1pz        0.062435 -0.000000 -0.000000  0.000001  0.000000  0.000000
  0C   1px       -0.000000 -0.411125  0.000000 -0.000000 -0.000002 -0.000001
  0C   1py        0.520341 -0.000000 -0.000001 -0.000000  0.000000 -0.000000
  0C   2pz        0.016112 -0.000000 -0.000000  0.000001  0.000000 -0.000000
  0C   2px        0.000000  0.117366 -0.000000  0.000000  0.000001  0.000004
  0C   2py        0.134277 -0.000000 -0.000001 -0.000000  0.000000 -0.000000
  0C   1dz2       0.000000 -0.000001 -0.000000  0.000000  0.092637 -0.041834
  0C   1dxz       0.000000  0.000000 -0.000270  0.009115 -0.000000 -0.000000
  0C   1dyz      -0.000000  0.000000 -0.000000  0.000000 -0.000000 -0.000000
  0C   1dx2y2    -0.000000  0.000002  0.000000 -0.000000 -0.160452  0.072458
  0C   1dxy       0.000001  0.000000 -0.009115 -0.000270  0.000000 -0.000000
  1O   1s         0.000000  0.079878  0.000000 -0.000000 -0.053282  0.086782
  1O   2s         0.000000  0.310534  0.000000  0.000000  0.187603  0.039664
  1O   3s         0.000000  0.373036 -0.000000  0.000000  0.106234  1.908949
  1O   1pz        0.043639 -0.000000 -0.016807  0.566387 -0.000000  0.000000
  1O   1px        0.000000  0.432170 -0.000000 -0.000000 -0.507718  0.039128
  1O   1py        0.363690 -0.000000 -0.566387 -0.016807  0.000000  0.000000
  1O   2pz       -0.005094 -0.000000 -0.010202  0.343792 -0.000000  0.000000
  1O   2px       -0.000000  0.067224 -0.000000 -0.000000 -0.421181 -0.244101
  1O   2py       -0.042455 -0.000000 -0.343792 -0.010202  0.000000  0.000000
  1O   1dz2       0.000000  0.026359 -0.000000  0.000000  0.006776 -0.010033
  1O   1dxz      -0.004941  0.000000  0.001727 -0.058182  0.000000 -0.000000
  1O   1dyz       0.000000 -0.000000 -0.000000  0.000000  0.000000  0.000000
  1O   1dx2y2    -0.000000 -0.045655  0.000000 -0.000000 -0.011736  0.017378
  1O   1dxy      -0.041178  0.000000  0.058182  0.001727 -0.000000 -0.000000
  2O   1s         0.000000 -0.079877 -0.000000 -0.000000 -0.053281  0.086782
  2O   2s         0.000000 -0.310539 -0.000000  0.000000  0.187603  0.039664
  2O   3s         0.000000 -0.373036  0.000000 -0.000000  0.106236  1.908963
  2O   1pz        0.043639  0.000000  0.016807 -0.566385  0.000000  0.000000
  2O   1px       -0.000000  0.432169 -0.000000  0.000000  0.507720 -0.039128
  2O   1py        0.363696  0.000000  0.566385  0.016807  0.000000  0.000000
  2O   2pz       -0.005094  0.000000  0.010202 -0.343791  0.000000  0.000000
  2O   2px        0.000000  0.067223 -0.000000  0.000000  0.421183  0.244102
  2O   2py       -0.042454  0.000000  0.343791  0.010202  0.000000  0.000000
  2O   1dz2       0.000000 -0.026359  0.000000 -0.000000  0.006776 -0.010033
  2O   1dxz       0.004941  0.000000  0.001727 -0.058181  0.000000 -0.000000
  2O   1dyz       0.000000 -0.000000  0.000000 -0.000000  0.000000 -0.000000
  2O   1dx2y2    -0.000000  0.045655 -0.000000  0.000000 -0.011736  0.017378
  2O   1dxy       0.041179  0.000000  0.058181  0.001727  0.000000  0.000000
                     12        13        14        15        16        17   
                   0.22126   0.22126   0.31413   0.73650   0.80575   0.80575
                   0.00000   0.00000   0.00000   0.00000   0.00000   0.00000
                  --------  --------  --------  --------  --------  --------
  0C   1s         0.000000 -0.000000  0.000001 -0.261214  0.000000  0.000000
  0C   2s         0.000000 -0.000000  0.000003  5.063387 -0.000000 -0.000000
  0C   3s        -0.000000  0.000000  0.000008  1.666315 -0.000000  0.000000
  0C   1pz        0.165425  0.155003  0.000000 -0.000000  0.000056 -0.000037
  0C   1px       -0.000000  0.000000  0.096688 -0.000003  0.000000  0.000000
  0C   1py       -0.155003  0.165425  0.000000 -0.000000 -0.000037 -0.000056
  0C   2pz       -1.233074 -1.155390  0.000000 -0.000000  0.000086 -0.000056
  0C   2px        0.000000  0.000000  3.207930  0.000004 -0.000000 -0.000000
  0C   2py        1.155390 -1.233074 -0.000000 -0.000000 -0.000056 -0.000086
  0C   1dz2      -0.000000  0.000000  0.000000 -0.059460  0.000000 -0.000000
  0C   1dxz       0.000000  0.000000  0.000000 -0.000000 -0.357229  0.233387
  0C   1dyz      -0.000000 -0.000000  0.000000 -0.000000  0.000000 -0.000000
  0C   1dx2y2     0.000000 -0.000000 -0.000000  0.102987  0.000000  0.000000
  0C   1dxy      -0.000000  0.000000  0.000000 -0.000000  0.233387  0.357229
  1O   1s         0.000000 -0.000000 -0.061720  0.017929 -0.000000 -0.000000
  1O   2s        -0.000000  0.000000 -0.002267 -0.310961  0.000000  0.000000
  1O   3s         0.000000 -0.000000 -2.860409 -2.687753 -0.000001 -0.000001
  1O   1pz        0.085302  0.079928 -0.000000  0.000000 -0.296202  0.193516
  1O   1px        0.000000 -0.000000 -0.153760 -0.293925 -0.000000 -0.000000
  1O   1py       -0.079928  0.085302 -0.000000  0.000000  0.193516  0.296202
  1O   2pz        0.317563  0.297556 -0.000000  0.000000  0.980394 -0.640518
  1O   2px        0.000000 -0.000000 -0.034720  1.743521  0.000000  0.000001
  1O   2py       -0.297556  0.317563 -0.000000  0.000000 -0.640518 -0.980394
  1O   1dz2      -0.000000  0.000000  0.000366  0.027185  0.000000  0.000000
  1O   1dxz      -0.022764 -0.021330  0.000000  0.000000 -0.043343  0.028317
  1O   1dyz       0.000000  0.000000 -0.000000 -0.000000  0.000000 -0.000000
  1O   1dx2y2     0.000000 -0.000000 -0.000635 -0.047085  0.000000 -0.000000
  1O   1dxy       0.021330 -0.022764  0.000000  0.000000  0.028317  0.043343
  2O   1s         0.000000 -0.000000  0.061719  0.017930  0.000000  0.000000
  2O   2s        -0.000000  0.000000  0.002268 -0.310966 -0.000000 -0.000000
  2O   3s         0.000000 -0.000000  2.860396 -2.687779  0.000001  0.000001
  2O   1pz        0.085302  0.079928  0.000000  0.000000  0.296186 -0.193506
  2O   1px       -0.000000  0.000000 -0.153761  0.293925 -0.000000 -0.000000
  2O   1py       -0.079928  0.085302  0.000000  0.000000 -0.193506 -0.296186
  2O   2pz        0.317562  0.297555  0.000000  0.000000 -0.980545  0.640616
  2O   2px       -0.000000  0.000000 -0.034726 -1.743533  0.000000  0.000001
  2O   2py       -0.297555  0.317562  0.000000  0.000000  0.640616  0.980545
  2O   1dz2      -0.000000  0.000000 -0.000366  0.027185 -0.000000 -0.000000
  2O   1dxz       0.022764  0.021330  0.000000 -0.000000 -0.043336  0.028313
  2O   1dyz       0.000000  0.000000  0.000000 -0.000000 -0.000000  0.000000
  2O   1dx2y2     0.000000 -0.000000  0.000635 -0.047086 -0.000000  0.000000
  2O   1dxy      -0.021330  0.022764  0.000000 -0.000000  0.028313  0.043336
                     18        19        20        21        22        23   
                   0.81870   0.81870   0.84526   1.22443   1.35749   1.35749
                   0.00000   0.00000   0.00000   0.00000   0.00000   0.00000
                  --------  --------  --------  --------  --------  --------
  0C   1s        -0.000000  0.000000 -0.000000 -0.048442  0.000000  0.000000
  0C   2s         0.000001 -0.000002  0.000002  0.100262 -0.000000 -0.000000
  0C   3s         0.000000 -0.000000  0.000001  3.224334 -0.000000 -0.000000
  0C   1pz       -0.846980 -0.773783 -0.000000 -0.000000 -0.000004  0.000001
  0C   1px        0.000000 -0.000000 -0.561594  0.000003 -0.000000  0.000000
  0C   1py        0.773783 -0.846980  0.000000 -0.000000 -0.000001 -0.000004
  0C   2pz       -1.248155 -1.140288 -0.000000  0.000000  0.000017 -0.000003
  0C   2px       -0.000000  0.000000  0.972481 -0.000003  0.000000 -0.000000
  0C   2py        1.140288 -1.248155 -0.000000  0.000000  0.000003  0.000017
  0C   1dz2      -0.000000  0.000000  0.000001  0.295165 -0.000000  0.743015
  0C   1dxz      -0.000020 -0.000018  0.000000  0.000000 -0.000000  0.000000
  0C   1dyz      -0.000000 -0.000000  0.000000 -0.000000 -0.857965 -0.000001
  0C   1dx2y2     0.000000 -0.000000 -0.000001 -0.511241 -0.000000  0.428980
  0C   1dxy       0.000018 -0.000020  0.000000  0.000000 -0.000000 -0.000000
  1O   1s        -0.000000  0.000000 -0.010947  0.208189 -0.000000 -0.000000
  1O   2s        -0.000000  0.000000 -0.046181  2.183186 -0.000000 -0.000000
  1O   3s        -0.000001  0.000001  2.885083 -3.342529  0.000000  0.000000
  1O   1pz        0.114253  0.104379  0.000000  0.000000  0.000009 -0.000001
  1O   1px       -0.000000  0.000000  0.114098  0.130034  0.000000 -0.000000
  1O   1py       -0.104379  0.114253  0.000000  0.000000  0.000001  0.000009
  1O   2pz        1.109891  1.013973 -0.000000 -0.000000 -0.000013  0.000002
  1O   2px        0.000000 -0.000001 -2.853521  0.137017 -0.000000 -0.000000
  1O   2py       -1.013973  1.109891 -0.000000 -0.000000 -0.000002 -0.000013
  1O   1dz2       0.000000 -0.000000 -0.008377  0.019658 -0.000000  0.114617
  1O   1dxz       0.053042  0.048458  0.000000  0.000000  0.000002 -0.000000
  1O   1dyz      -0.000000 -0.000000 -0.000000 -0.000000 -0.132344 -0.000000
  1O   1dx2y2    -0.000000  0.000000  0.014510 -0.034049 -0.000000  0.066174
  1O   1dxy      -0.048458  0.053042  0.000000  0.000000  0.000000  0.000002
  2O   1s        -0.000000  0.000000  0.010948  0.208189 -0.000000 -0.000000
  2O   2s        -0.000000  0.000000  0.046183  2.183194 -0.000000 -0.000000
  2O   3s        -0.000000  0.000001 -2.885087 -3.342549  0.000000  0.000000
  2O   1pz        0.114284  0.104407 -0.000000  0.000000  0.000009 -0.000001
  2O   1px        0.000000 -0.000000  0.114099 -0.130036  0.000000  0.000000
  2O   1py       -0.104407  0.114284 -0.000000  0.000000  0.000001  0.000009
  2O   2pz        1.109793  1.013884  0.000000 -0.000000 -0.000013  0.000002
  2O   2px       -0.000000  0.000001 -2.853522 -0.137018  0.000000  0.000000
  2O   2py       -1.013884  1.109793  0.000000 -0.000000 -0.000002 -0.000013
  2O   1dz2       0.000000 -0.000000  0.008377  0.019658 -0.000000  0.114617
  2O   1dxz      -0.053047 -0.048463  0.000000 -0.000000 -0.000002  0.000000
  2O   1dyz      -0.000000 -0.000000  0.000000 -0.000000 -0.132344 -0.000000
  2O   1dx2y2    -0.000000  0.000000 -0.014510 -0.034049 -0.000000  0.066174
  2O   1dxy       0.048463 -0.053047  0.000000 -0.000000 -0.000000 -0.000002
                     24        25        26        27        28        29   
                   1.35893   1.35893   1.59298   2.08830   2.57639   2.57640
                   0.00000   0.00000   0.00000   0.00000   0.00000   0.00000
                  --------  --------  --------  --------  --------  --------
  0C   1s        -0.000000  0.000000  0.000000 -0.001909  0.000000  0.000000
  0C   2s         0.000000 -0.000000  0.000002  7.362767 -0.000000  0.000000
  0C   3s         0.000000 -0.000000 -0.000004  1.693640 -0.000000  0.000000
  0C   1pz       -0.268746 -0.211058 -0.000000 -0.000000  0.000000 -0.000000
  0C   1px        0.000000 -0.000000 -0.071747  0.000002 -0.000000 -0.000000
  0C   1py        0.211058 -0.268746 -0.000000 -0.000000 -0.000000 -0.000000
  0C   2pz        1.163843  0.914016  0.000000  0.000000  0.000000 -0.000000
  0C   2px        0.000000  0.000000 -3.245467  0.000004 -0.000000 -0.000000
  0C   2py       -0.914016  1.163843  0.000000  0.000000 -0.000000 -0.000000
  0C   1dz2       0.000006 -0.000006 -0.000000  0.268886 -0.000001 -0.000000
  0C   1dxz      -0.000001 -0.000000 -0.000000  0.000000 -0.000000  0.000000
  0C   1dyz       0.000007  0.000007 -0.000000 -0.000000  0.000000  0.000001
  0C   1dx2y2     0.000003 -0.000003  0.000001 -0.465725 -0.000001  0.000000
  0C   1dxy       0.000000 -0.000001 -0.000000  0.000000  0.000000  0.000000
  1O   1s         0.000000 -0.000000 -0.213930 -0.169531 -0.000000 -0.000000
  1O   2s         0.000000 -0.000000 -1.564594 -0.789032 -0.000000 -0.000000
  1O   3s        -0.000000  0.000001  5.279275 -3.534664  0.000000  0.000000
  1O   1pz        0.631808  0.496186  0.000000  0.000000  0.000000 -0.000000
  1O   1px        0.000000 -0.000000 -0.384094  0.827484 -0.000000  0.000000
  1O   1py       -0.496186  0.631808  0.000000  0.000000 -0.000000 -0.000000
  1O   2pz       -0.911529 -0.715864  0.000000 -0.000000  0.000000 -0.000000
  1O   2px        0.000000 -0.000000 -0.090801  1.340506 -0.000000  0.000000
  1O   2py        0.715864 -0.911529  0.000000 -0.000000 -0.000000 -0.000000
  1O   1dz2       0.000001 -0.000001  0.010183  0.019967 -0.626590  0.000000
  1O   1dxz       0.106702  0.083798 -0.000000  0.000000  0.000000 -0.000000
  1O   1dyz       0.000001  0.000001 -0.000000 -0.000000  0.000000  0.723524
  1O   1dx2y2     0.000001 -0.000001 -0.017637 -0.034583 -0.361762  0.000000
  1O   1dxy      -0.083798  0.106702 -0.000000  0.000000 -0.000000 -0.000000
  2O   1s         0.000000 -0.000000  0.213929 -0.169532  0.000000 -0.000000
  2O   2s         0.000000 -0.000000  1.564584 -0.789039  0.000000 -0.000000
  2O   3s        -0.000000  0.000001 -5.279265 -3.534695 -0.000000 -0.000000
  2O   1pz        0.631807  0.496185  0.000000  0.000000 -0.000000  0.000000
  2O   1px       -0.000000  0.000000 -0.384096 -0.827484 -0.000000 -0.000000
  2O   1py       -0.496185  0.631807 -0.000000  0.000000  0.000000  0.000000
  2O   2pz       -0.911530 -0.715864 -0.000000 -0.000000 -0.000000  0.000000
  2O   2px       -0.000000  0.000000 -0.090792 -1.340525 -0.000000 -0.000000
  2O   2py        0.715864 -0.911530 -0.000000 -0.000000  0.000000  0.000000
  2O   1dz2       0.000001 -0.000001 -0.010182  0.019968  0.626589 -0.000000
  2O   1dxz      -0.106703 -0.083798 -0.000000 -0.000000  0.000000 -0.000000
  2O   1dyz       0.000001  0.000001  0.000000  0.000000 -0.000000 -0.723523
  2O   1dx2y2     0.000001 -0.000001  0.017637 -0.034586  0.361762 -0.000000
  2O   1dxy       0.083798 -0.106703 -0.000000 -0.000000 -0.000000 -0.000000
                     30        31        32        33        34        35   
                   3.01714   3.01714   3.29024   3.31798   3.60196   3.60196
                   0.00000   0.00000   0.00000   0.00000   0.00000   0.00000
                  --------  --------  --------  --------  --------  --------
  0C   1s        -0.000000  0.000000  0.440913 -0.000062 -0.000000 -0.000000
  0C   2s        -0.000000  0.000000 10.326208 -0.001381  0.000000  0.000000
  0C   3s        -0.000000  0.000000  1.251435 -0.000163 -0.000000 -0.000000
  0C   1pz       -0.000000  0.000000 -0.000000  0.000000 -0.000000  0.000000
  0C   1px        0.000000  0.000000 -0.000023 -0.133381  0.000000 -0.000000
  0C   1py        0.000000  0.000000 -0.000000  0.000000  0.000000  0.000000
  0C   2pz       -0.000001  0.000000  0.000000  0.000000 -0.000000  0.000000
  0C   2px       -0.000000 -0.000000  0.000008  0.036923  0.000000 -0.000000
  0C   2py        0.000000  0.000001  0.000000 -0.000000  0.000000  0.000000
  0C   1dz2       0.000000 -0.000000 -0.867463  0.000119 -0.942615 -0.000000
  0C   1dxz      -0.301329  0.142961 -0.000000  0.000000 -0.000000  0.000000
  0C   1dyz       0.000000 -0.000000  0.000000  0.000000 -0.000000  1.088434
  0C   1dx2y2    -0.000000  0.000000  1.502490 -0.000205 -0.544219 -0.000000
  0C   1dxy       0.142961  0.301329 -0.000000  0.000000  0.000000  0.000000
  1O   1s        -0.000000 -0.000000  0.015918  0.000995 -0.000000 -0.000000
  1O   2s        -0.000000 -0.000000 -3.084797  0.413110 -0.000000 -0.000000
  1O   3s         0.000000  0.000000 -3.288614 -2.497571 -0.000000  0.000000
  1O   1pz        0.260755 -0.123712 -0.000000 -0.000000 -0.000000  0.000000
  1O   1px        0.000000  0.000000  0.698881  0.088537  0.000000  0.000000
  1O   1py       -0.123712 -0.260755 -0.000000 -0.000000  0.000000  0.000000
  1O   2pz       -0.226314  0.107371 -0.000000 -0.000000  0.000000 -0.000000
  1O   2px       -0.000000 -0.000000  1.520639  1.583945  0.000000  0.000000
  1O   2py        0.107371  0.226314 -0.000000 -0.000000 -0.000000 -0.000000
  1O   1dz2       0.000000  0.000000  0.334185  0.507007  0.822332  0.000000
  1O   1dxz       0.655299 -0.310897  0.000000  0.000000 -0.000000  0.000000
  1O   1dyz       0.000000 -0.000000 -0.000000 -0.000000  0.000000 -0.949548
  1O   1dx2y2     0.000000  0.000000 -0.578826 -0.878162  0.474773  0.000000
  1O   1dxy      -0.310897 -0.655299  0.000000  0.000000  0.000000  0.000000
  2O   1s         0.000000  0.000000  0.015917 -0.000999 -0.000000 -0.000000
  2O   2s         0.000000  0.000000 -3.084931 -0.412274 -0.000000 -0.000000
  2O   3s        -0.000000 -0.000000 -3.287952  2.498439 -0.000000 -0.000000
  2O   1pz       -0.260756  0.123712 -0.000000  0.000000 -0.000000  0.000000
  2O   1px        0.000000  0.000000 -0.698855  0.088725 -0.000000 -0.000000
  2O   1py        0.123712  0.260756 -0.000000  0.000000  0.000000  0.000000
  2O   2pz        0.226315 -0.107372 -0.000000  0.000000  0.000000 -0.000000
  2O   2px       -0.000000 -0.000000 -1.520214  1.584350 -0.000000 -0.000000
  2O   2py       -0.107372 -0.226315 -0.000000  0.000000 -0.000000 -0.000000
  2O   1dz2      -0.000000 -0.000000  0.334048 -0.507098  0.822335  0.000000
  2O   1dxz       0.655300 -0.310897 -0.000000  0.000000  0.000000 -0.000000
  2O   1dyz      -0.000000  0.000000 -0.000000  0.000000  0.000000 -0.949551
  2O   1dx2y2    -0.000000 -0.000000 -0.578588  0.878319  0.474775  0.000000
  2O   1dxy      -0.310897 -0.655300 -0.000000  0.000000 -0.000000 -0.000000
                     36        37        38        39        40        41   
                   4.14517   4.14517   4.55796   4.55796   6.38010   7.43235
                   0.00000   0.00000   0.00000   0.00000   0.00000   0.00000
                  --------  --------  --------  --------  --------  --------
  0C   1s        -0.000000  0.000000 -0.000000  0.000000  0.658880 -0.000003
  0C   2s         0.000000 -0.000000  0.000001 -0.000000-23.081481  0.000333
  0C   3s         0.000000  0.000000 -0.000000  0.000000 -0.594135  0.000017
  0C   1pz        0.000006 -0.000004 -1.342530 -2.302486  0.000000  0.000000
  0C   1px        0.000000  0.000000  0.000000 -0.000000 -0.000013 -5.938286
  0C   1py       -0.000004 -0.000006  2.302486 -1.342530  0.000000  0.000000
  0C   2pz        0.000001 -0.000001 -0.410010 -0.703181 -0.000000  0.000000
  0C   2px        0.000000  0.000000  0.000000 -0.000000  0.000004 -0.045150
  0C   2py       -0.000001 -0.000001  0.703181 -0.410010 -0.000000  0.000000
  0C   1dz2       0.000000 -0.000000 -0.000000  0.000000  3.352046 -0.000037
  0C   1dxz      -2.131248  1.657761  0.000001  0.000002  0.000000  0.000000
  0C   1dyz       0.000000 -0.000000  0.000000  0.000000  0.000000 -0.000000
  0C   1dx2y2     0.000000  0.000000  0.000000 -0.000000 -5.805915  0.000064
  0C   1dxy       1.657761  2.131248 -0.000002  0.000001  0.000000  0.000000
  1O   1s        -0.000000 -0.000000  0.000000 -0.000000 -0.155622  0.170237
  1O   2s         0.000000  0.000000 -0.000000  0.000000 10.412688  4.061434
  1O   3s        -0.000000 -0.000000  0.000000 -0.000000  4.238127  2.401032
  1O   1pz        1.218372 -0.947693  0.295118  0.506137  0.000000  0.000000
  1O   1px       -0.000000 -0.000000 -0.000000  0.000000 -1.639309 -1.850314
  1O   1py       -0.947693 -1.218372 -0.506137  0.295118  0.000000  0.000000
  1O   2pz        0.507599 -0.394829  0.558966  0.958647  0.000000  0.000000
  1O   2px        0.000000  0.000000  0.000000 -0.000000 -2.049346 -1.297798
  1O   2py       -0.394829 -0.507599 -0.958647  0.558966  0.000000  0.000000
  1O   1dz2       0.000000  0.000000 -0.000000  0.000000  0.341614 -0.269867
  1O   1dxz      -0.703260  0.547021 -0.594107 -1.018914  0.000000 -0.000000
  1O   1dyz       0.000000 -0.000000 -0.000000 -0.000000 -0.000000  0.000000
  1O   1dx2y2     0.000000  0.000000  0.000000 -0.000000 -0.591693  0.467423
  1O   1dxy       0.547021  0.703260  1.018914 -0.594107  0.000000 -0.000000
  2O   1s         0.000000  0.000000  0.000000 -0.000000 -0.155627 -0.170231
  2O   2s        -0.000000 -0.000000 -0.000000  0.000000 10.412682 -4.061705
  2O   3s         0.000000  0.000000  0.000000 -0.000000  4.238154 -2.401180
  2O   1pz       -1.218377  0.947697  0.295122  0.506145  0.000000 -0.000000
  2O   1px       -0.000000 -0.000000  0.000000 -0.000000  1.639261 -1.850355
  2O   1py        0.947697  1.218377 -0.506145  0.295122  0.000000 -0.000000
  2O   2pz       -0.507603  0.394831  0.558970  0.958653  0.000000 -0.000000
  2O   2px        0.000000  0.000000 -0.000000  0.000000  2.049340 -1.297860
  2O   2py        0.394831  0.507603 -0.958653  0.558970  0.000000 -0.000000
  2O   1dz2      -0.000000 -0.000000 -0.000000  0.000000  0.341618  0.269855
  2O   1dxz      -0.703254  0.547016  0.594110  1.018919 -0.000000 -0.000000
  2O   1dyz      -0.000000  0.000000 -0.000000 -0.000000 -0.000000  0.000000
  2O   1dx2y2    -0.000000 -0.000000  0.000000 -0.000000 -0.591700 -0.467403
  2O   1dxy       0.547016  0.703254 -1.018919  0.594110 -0.000000 -0.000000
             **** ENERGY FILE WAS UPDATED (job.en.tmp) ****
Finished Guess after   0.0 sec
Maximum memory used throughout the entire GUESS-calculation: 5.8 MB

-------------------------------------------------------------------------------------------
                                      ORCA LEAN-SCF
                              memory conserving SCF solver
-------------------------------------------------------------------------------------------

----------------------------------------D-I-I-S--------------------------------------------
Iteration    Energy (Eh)           Delta-E    RMSDP     MaxDP     DIISErr   Damp  Time(sec)
-------------------------------------------------------------------------------------------
               ***  Starting incremental Fock matrix formation  ***
                              *** Initializing SOSCF ***
---------------------------------------S-O-S-C-F--------------------------------------
Iteration    Energy (Eh)           Delta-E    RMSDP     MaxDP     MaxGrad    Time(sec)
--------------------------------------------------------------------------------------
    1    -182.2226681314242569     0.00e+00  4.11e-07  2.89e-06  2.36e-07     0.2

                         ----------------------------
                         !        ITERATION     0   !
                         ----------------------------
   Total Energy        :    -182.222668131424 Eh
   Energy Change       :     182.222668131424 Eh
   MAX-DP              :       0.000002890127
   RMS-DP              :       0.000000411473
   Orbital gradient    :       0.000000235808
   Orbital Rotation    :       0.000000235808
   alpha HOMO          :      -0.3411 Eh
   alpha LUMO          :       0.1534 Eh
   Int. Num. El.       :    21.99998883 (UP=   10.99999442 DN=   10.99999442)
   Exchange            :   -18.91132239 Eh
   Correlation         :    -1.00410527 Eh

               *** Restarting incremental Fock matrix formation ***
    2    -182.2226681314268149    -2.56e-12  2.77e-07  1.97e-06  7.70e-07     0.2
                  *** Gradient check signals convergence ***

                         ----------------------------
                         !        ITERATION     1   !
                         ----------------------------
   Total Energy        :    -182.222668131427 Eh
   Energy Change       :       0.000000000003 Eh
   MAX-DP              :       0.000001970414
   RMS-DP              :       0.000000276923
   Orbital gradient    :       0.000000769738
   Orbital Rotation    :       0.000000677557
   alpha HOMO          :      -0.3411 Eh
   alpha LUMO          :       0.1534 Eh
   Int. Num. El.       :    21.99998883 (UP=   10.99999442 DN=   10.99999442)
   Exchange            :   -18.91131559 Eh
   Correlation         :    -1.00410508 Eh


               *****************************************************
               *                     SUCCESS                       *
               *           SCF CONVERGED AFTER   2 CYCLES          *
               *****************************************************

Recomputing exchange energy using gridx3       ... done (    0.221 sec)
Old exchange energy                            :     -4.761644518 Eh
New exchange energy                            :     -4.761648796 Eh
Exchange energy change after final integration :     -0.000004279 Eh
Total energy after final integration           :   -182.222672410 Eh
             **** ENERGY FILE WAS UPDATED (job.en.tmp) ****

----------------
TOTAL SCF ENERGY
----------------

Total Energy       :       -182.22267240996533 Eh           -4958.53100 eV

Components:
Nuclear Repulsion  :        112.55053034987304 Eh            3062.65563 eV
Electronic Energy  :       -294.77319848129991 Eh           -8021.18652 eV
One Electron Energy:       -464.68296812635481 Eh          -12644.66641 eV
Two Electron Energy:        169.90976964505492 Eh            4623.47989 eV

Virial components:
Potential Energy   :       -387.06648225292128 Eh          -10532.61445 eV
Kinetic Energy     :        204.84380984295595 Eh            5574.08345 eV
Virial Ratio       :          1.88956885028484

DFT components:
N(Alpha)           :       10.999994417477 electrons
N(Beta)            :       10.999994417477 electrons
N(Total)           :       21.999988834954 electrons
E(X)               :      -18.911315586611 Eh       
E(C)               :       -1.004105079658 Eh       
E(XC)              :      -19.915420666268 Eh       

---------------
SCF CONVERGENCE
---------------

  Last Energy change         ...    2.5580e-12  Tolerance :   1.0000e-08
  Last MAX-Density change    ...    1.9704e-06  Tolerance :   1.0000e-07
  Last RMS-Density change    ...    2.7692e-07  Tolerance :   5.0000e-09
  Last DIIS Error            ...    2.3211e-06  Tolerance :   5.0000e-07
  Last Orbital Gradient      ...    7.6974e-07  Tolerance :   1.0000e-05
  Last Orbital Rotation      ...    6.7756e-07  Tolerance :   1.0000e-05


----------------
ORBITAL ENERGIES
----------------

  NO   OCC          E(Eh)            E(eV) 
   0   2.0000     -19.223219      -523.0904 
   1   2.0000     -19.222737      -523.0773 
   2   2.0000     -10.812743      -294.2297 
   3   2.0000      -1.269480       -34.5443 
   4   2.0000      -1.185173       -32.2502 
   5   2.0000      -0.999839       -27.2070 
   6   2.0000      -0.999839       -27.2070 
   7   2.0000      -0.521164       -14.1816 
   8   2.0000      -0.372649       -10.1403 
   9   2.0000      -0.372649       -10.1403 
  10   2.0000      -0.341093        -9.2816 
  11   0.0000       0.153435         4.1752 
  12   0.0000       0.221264         6.0209 
  13   0.0000       0.221264         6.0209 
  14   0.0000       0.314128         8.5478 
  15   0.0000       0.736496        20.0411 
  16   0.0000       0.805750        21.9256 
  17   0.0000       0.805750        21.9256 
  18   0.0000       0.818699        22.2779 
  19   0.0000       0.818699        22.2779 
  20   0.0000       0.845256        23.0006 
  21   0.0000       1.224432        33.3185 
  22   0.0000       1.357493        36.9393 
  23   0.0000       1.357493        36.9393 
  24   0.0000       1.358934        36.9785 
  25   0.0000       1.358934        36.9785 
  26   0.0000       1.592983        43.3473 
  27   0.0000       2.088297        56.8254 
  28   0.0000       2.576387        70.1071 
  29   0.0000       2.576400        70.1074 
  30   0.0000       3.017141        82.1006 
  31   0.0000       3.017141        82.1006 
  32   0.0000       3.290236        89.5319 
  33   0.0000       3.317977        90.2867 
  34   0.0000       3.601959        98.0143 
  35   0.0000       3.601964        98.0144 
  36   0.0000       4.145171       112.7958 
  37   0.0000       4.145171       112.7958 
  38   0.0000       4.557962       124.0284 
  39   0.0000       4.557962       124.0284 
  40   0.0000       6.380104       173.6115 
  41   0.0000       7.432349       202.2445 
------------------
MOLECULAR ORBITALS (RHF, ROHF)
------------------
                      0         1         2         3         4         5   
                 -19.22322 -19.22274 -10.81274  -1.26948  -1.18517  -0.99984
                   2.00000   2.00000   2.00000   2.00000   2.00000   2.00000
                  --------  --------  --------  --------  --------  --------
  0C   1s        -0.004507 -0.000032  0.971105  0.000006 -0.376325 -0.000000
  0C   2s         0.043402  0.000305 -0.131075  0.000013 -0.060067  0.000000
  0C   3s        -0.002213 -0.000016 -0.011607 -0.000001  0.057279  0.000000
  0C   1pz       -0.000000  0.000000 -0.000000 -0.000000 -0.000000 -0.520414
  0C   1px       -0.000034  0.004840 -0.000001 -0.855268 -0.000016  0.000000
  0C   1py       -0.000000  0.000000 -0.000000 -0.000000 -0.000000  0.061822
  0C   2pz       -0.000000 -0.000000 -0.000000 -0.000000 -0.000000 -0.134296
  0C   2px        0.000125 -0.017844  0.000000 -0.067009 -0.000001 -0.000000
  0C   2py       -0.000000 -0.000000 -0.000000 -0.000000 -0.000000  0.015953
  0C   1dz2       0.004293  0.000030  0.009501 -0.000002  0.054567  0.000000
  0C   1dxz      -0.000000  0.000000  0.000000  0.000000  0.000000 -0.000001
  0C   1dyz       0.000000  0.000000  0.000000 -0.000000  0.000000  0.000000
  0C   1dx2y2    -0.007437 -0.000052 -0.016457  0.000004 -0.094513  0.000000
  0C   1dxy      -0.000000  0.000000  0.000000  0.000000  0.000000  0.000000
  1O   1s         0.692121  0.701923  0.032631 -0.243782  0.202991  0.000000
  1O   2s        -0.029960 -0.039992  0.064047 -0.142447  0.527269 -0.000000
  1O   3s        -0.006665  0.034723  0.035790  0.244623  0.168699 -0.000000
  1O   1pz       -0.000000 -0.000000  0.000000 -0.000000 -0.000000 -0.363741
  1O   1px        0.009644  0.010662 -0.037026  0.264619 -0.142304 -0.000000
  1O   1py        0.000000 -0.000000  0.000000 -0.000000 -0.000000  0.043210
  1O   2pz       -0.000000  0.000000  0.000000  0.000000  0.000000  0.042461
  1O   2px        0.008294 -0.001987 -0.015913 -0.132349 -0.042670  0.000000
  1O   2py       -0.000000 -0.000000  0.000000  0.000000  0.000000 -0.005044
  1O   1dz2       0.001152  0.002828 -0.003235  0.031689  0.010880 -0.000000
  1O   1dxz       0.000000  0.000000 -0.000000  0.000000  0.000000  0.041184
  1O   1dyz      -0.000000 -0.000000 -0.000000  0.000000 -0.000000 -0.000000
  1O   1dx2y2    -0.001995 -0.004898  0.005603 -0.054887 -0.018844  0.000000
  1O   1dxy       0.000000  0.000000 -0.000000  0.000000  0.000000 -0.004892
  2O   1s         0.701926 -0.692118  0.032632  0.243775  0.203001 -0.000000
  2O   2s        -0.030519  0.039566  0.064046  0.142415  0.527276 -0.000000
  2O   3s        -0.006176 -0.034813  0.035789 -0.244633  0.168691 -0.000000
  2O   1pz        0.000000  0.000000  0.000000  0.000000  0.000000 -0.363747
  2O   1px       -0.009793  0.010525  0.037026  0.264611  0.142311 -0.000000
  2O   1py        0.000000  0.000000  0.000000  0.000000 -0.000000  0.043211
  2O   2pz        0.000000  0.000000  0.000000 -0.000000  0.000000  0.042460
  2O   2px       -0.008265 -0.002104  0.015912 -0.132352  0.042665  0.000000
  2O   2py        0.000000  0.000000  0.000000 -0.000000  0.000000 -0.005044
  2O   1dz2       0.001191 -0.002811 -0.003235 -0.031689  0.010879 -0.000000
  2O   1dxz      -0.000000 -0.000000  0.000000  0.000000 -0.000000 -0.041185
  2O   1dyz      -0.000000 -0.000000 -0.000000  0.000000 -0.000000 -0.000000
  2O   1dx2y2    -0.002063  0.004869  0.005603  0.054888 -0.018843 -0.000000
  2O   1dxy      -0.000000  0.000000  0.000000  0.000000 -0.000000  0.004892
                      6         7         8         9        10        11   
                  -0.99984  -0.52116  -0.37265  -0.37265  -0.34109   0.15343
                   2.00000   2.00000   2.00000   2.00000   2.00000   0.00000
                  --------  --------  --------  --------  --------  --------
  0C   1s         0.000000 -0.000001  0.000000  0.000000 -0.294460  0.058475
  0C   2s         0.000000  0.000006  0.000000  0.000000 -0.837954  0.721109
  0C   3s         0.000000  0.000001  0.000000  0.000000 -0.261027  3.231988
  0C   1pz       -0.061822 -0.000000 -0.000000 -0.000001  0.000000 -0.000000
  0C   1px        0.000000 -0.411125  0.000000  0.000000 -0.000002  0.000001
  0C   1py       -0.520414 -0.000000 -0.000001  0.000000  0.000000  0.000000
  0C   2pz       -0.015953 -0.000000 -0.000000 -0.000001  0.000000  0.000000
  0C   2px       -0.000000  0.117366 -0.000000 -0.000000  0.000001 -0.000004
  0C   2py       -0.134296 -0.000000 -0.000001  0.000000  0.000000  0.000000
  0C   1dz2      -0.000000 -0.000001 -0.000000 -0.000000  0.092637  0.041834
  0C   1dxz      -0.000000  0.000000 -0.000307 -0.009114 -0.000000  0.000000
  0C   1dyz       0.000000 -0.000000 -0.000000  0.000000 -0.000000  0.000000
  0C   1dx2y2     0.000000  0.000002  0.000000  0.000000 -0.160452 -0.072458
  0C   1dxy      -0.000001  0.000000 -0.009114  0.000307  0.000000  0.000000
  1O   1s        -0.000000  0.079878  0.000000  0.000000 -0.053282 -0.086782
  1O   2s        -0.000000  0.310534  0.000000 -0.000000  0.187603 -0.039663
  1O   3s        -0.000000  0.373036 -0.000000 -0.000000  0.106234 -1.908950
  1O   1pz       -0.043210 -0.000000 -0.019081 -0.566315 -0.000000 -0.000000
  1O   1px       -0.000000  0.432170 -0.000000  0.000000 -0.507717 -0.039128
  1O   1py       -0.363741 -0.000000 -0.566315  0.019081  0.000000 -0.000000
  1O   2pz        0.005044 -0.000000 -0.011582 -0.343749 -0.000000 -0.000000
  1O   2px        0.000000  0.067224 -0.000000  0.000000 -0.421182  0.244101
  1O   2py        0.042461 -0.000000 -0.343749  0.011582  0.000000 -0.000000
  1O   1dz2      -0.000000  0.026359 -0.000000 -0.000000  0.006776  0.010033
  1O   1dxz       0.004892  0.000000  0.001960  0.058174  0.000000  0.000000
  1O   1dyz      -0.000000  0.000000 -0.000000 -0.000000  0.000000 -0.000000
  1O   1dx2y2     0.000000 -0.045655  0.000000  0.000000 -0.011736 -0.017378
  1O   1dxy       0.041184  0.000000  0.058174 -0.001960 -0.000000  0.000000
  2O   1s        -0.000000 -0.079877 -0.000000  0.000000 -0.053281 -0.086782
  2O   2s        -0.000000 -0.310539 -0.000000 -0.000000  0.187603 -0.039664
  2O   3s        -0.000000 -0.373036  0.000000  0.000000  0.106236 -1.908963
  2O   1pz       -0.043211  0.000000  0.019081  0.566312  0.000000 -0.000000
  2O   1px        0.000000  0.432169 -0.000000 -0.000000  0.507719  0.039128
  2O   1py       -0.363747  0.000000  0.566312 -0.019081  0.000000 -0.000000
  2O   2pz        0.005044  0.000000  0.011582  0.343747  0.000000 -0.000000
  2O   2px       -0.000000  0.067223 -0.000000 -0.000000  0.421183 -0.244102
  2O   2py        0.042460  0.000000  0.343747 -0.011582  0.000000 -0.000000
  2O   1dz2      -0.000000 -0.026359  0.000000  0.000000  0.006776  0.010033
  2O   1dxz      -0.004892  0.000000  0.001960  0.058174  0.000000  0.000000
  2O   1dyz      -0.000000 -0.000000  0.000000  0.000000  0.000000  0.000000
  2O   1dx2y2     0.000000  0.045655 -0.000000 -0.000000 -0.011736 -0.017378
  2O   1dxy      -0.041185  0.000000  0.058174 -0.001960  0.000000 -0.000000
                     12        13        14        15        16        17   
                   0.22126   0.22126   0.31413   0.73650   0.80575   0.80575
                   0.00000   0.00000   0.00000   0.00000   0.00000   0.00000
                  --------  --------  --------  --------  --------  --------
  0C   1s         0.000000 -0.000000 -0.000001  0.261214 -0.000000 -0.000000
  0C   2s         0.000000 -0.000000 -0.000003 -5.063389  0.000000  0.000000
  0C   3s        -0.000000  0.000000 -0.000008 -1.666317  0.000000 -0.000000
  0C   1pz        0.164972  0.155485 -0.000000  0.000000 -0.000056  0.000038
  0C   1px       -0.000000  0.000000 -0.096688  0.000003 -0.000000 -0.000000
  0C   1py       -0.155485  0.164972 -0.000000  0.000000  0.000038  0.000056
  0C   2pz       -1.229697 -1.158984 -0.000000  0.000000 -0.000085  0.000058
  0C   2px        0.000000  0.000000 -3.207931 -0.000004  0.000000  0.000000
  0C   2py        1.158984 -1.229697  0.000000  0.000000  0.000058  0.000085
  0C   1dz2      -0.000000  0.000000 -0.000000  0.059460 -0.000000  0.000000
  0C   1dxz       0.000000  0.000000 -0.000000  0.000000  0.352748 -0.240106
  0C   1dyz      -0.000000 -0.000000 -0.000000  0.000000 -0.000000  0.000000
  0C   1dx2y2     0.000000 -0.000000  0.000000 -0.102987 -0.000000 -0.000000
  0C   1dxy      -0.000000  0.000000 -0.000000  0.000000 -0.240106 -0.352748
  1O   1s         0.000000 -0.000000  0.061720 -0.017929  0.000000  0.000000
  1O   2s        -0.000000  0.000000  0.002267  0.310961 -0.000000 -0.000000
  1O   3s         0.000000 -0.000000  2.860410  2.687755  0.000001  0.000001
  1O   1pz        0.085068  0.080176  0.000000 -0.000000  0.292486 -0.199087
  1O   1px        0.000000 -0.000000  0.153760  0.293925  0.000000  0.000000
  1O   1py       -0.080176  0.085068  0.000000 -0.000000 -0.199087 -0.292486
  1O   2pz        0.316693  0.298482  0.000000 -0.000000 -0.968097  0.658956
  1O   2px        0.000000 -0.000000  0.034720 -1.743522 -0.000000 -0.000001
  1O   2py       -0.298482  0.316693  0.000000 -0.000000  0.658956  0.968097
  1O   1dz2      -0.000000  0.000000 -0.000366 -0.027185 -0.000000 -0.000000
  1O   1dxz      -0.022702 -0.021396 -0.000000 -0.000000  0.042799 -0.029132
  1O   1dyz       0.000000  0.000000  0.000000  0.000000 -0.000000  0.000000
  1O   1dx2y2     0.000000 -0.000000  0.000635  0.047085 -0.000000  0.000000
  1O   1dxy       0.021396 -0.022702 -0.000000 -0.000000 -0.029132 -0.042799
  2O   1s         0.000000 -0.000000 -0.061719 -0.017930 -0.000000 -0.000000
  2O   2s        -0.000000  0.000000 -0.002268  0.310966  0.000000  0.000000
  2O   3s         0.000000 -0.000000 -2.860397  2.687781 -0.000001 -0.000001
  2O   1pz        0.085068  0.080176 -0.000000 -0.000000 -0.292471  0.199077
  2O   1px       -0.000000  0.000000  0.153761 -0.293924  0.000000  0.000000
  2O   1py       -0.080176  0.085068 -0.000000 -0.000000  0.199077  0.292471
  2O   2pz        0.316692  0.298481 -0.000000 -0.000000  0.968246 -0.659058
  2O   2px       -0.000000  0.000000  0.034727  1.743533 -0.000000 -0.000001
  2O   2py       -0.298481  0.316692 -0.000000 -0.000000 -0.659058 -0.968246
  2O   1dz2      -0.000000  0.000000  0.000366 -0.027185  0.000000  0.000000
  2O   1dxz       0.022702  0.021396 -0.000000  0.000000  0.042792 -0.029128
  2O   1dyz       0.000000  0.000000 -0.000000  0.000000  0.000000 -0.000000
  2O   1dx2y2     0.000000 -0.000000 -0.000635  0.047086  0.000000 -0.000000
  2O   1dxy      -0.021396  0.022702 -0.000000  0.000000 -0.029128 -0.042792
                     18        19        20        21        22        23   
                   0.81870   0.81870   0.84526   1.22443   1.35749   1.35749
                   0.00000   0.00000   0.00000   0.00000   0.00000   0.00000
                  --------  --------  --------  --------  --------  --------
  0C   1s         0.000000 -0.000000  0.000000  0.048442  0.000000  0.000000
  0C   2s        -0.000001  0.000002 -0.000002 -0.100259 -0.000000 -0.000000
  0C   3s        -0.000000  0.000000 -0.000001 -3.224333 -0.000000 -0.000000
  0C   1pz        0.844171  0.776846  0.000000  0.000000 -0.000004  0.000001
  0C   1px       -0.000000  0.000000  0.561595 -0.000003 -0.000000  0.000000
  0C   1py       -0.776846  0.844171 -0.000000  0.000000 -0.000001 -0.000004
  0C   2pz        1.244016  1.144803  0.000000 -0.000000  0.000017 -0.000003
  0C   2px        0.000000 -0.000000 -0.972480  0.000003  0.000000 -0.000000
  0C   2py       -1.144803  1.244016  0.000000 -0.000000  0.000003  0.000017
  0C   1dz2       0.000000 -0.000000 -0.000001 -0.295166 -0.000000  0.743015
  0C   1dxz       0.000020  0.000018 -0.000000 -0.000000 -0.000000  0.000000
  0C   1dyz       0.000000  0.000000 -0.000000  0.000000 -0.857965 -0.000001
  0C   1dx2y2    -0.000000  0.000000  0.000001  0.511242 -0.000000  0.428980
  0C   1dxy      -0.000018  0.000020 -0.000000 -0.000000 -0.000000 -0.000000
  1O   1s         0.000000 -0.000000  0.010947 -0.208189 -0.000000 -0.000000
  1O   2s         0.000000 -0.000000  0.046182 -2.183187 -0.000000 -0.000000
  1O   3s         0.000001 -0.000001 -2.885084  3.342527  0.000000  0.000000
  1O   1pz       -0.113873 -0.104792 -0.000000 -0.000000  0.000009 -0.000001
  1O   1px        0.000000 -0.000000 -0.114098 -0.130034  0.000000 -0.000000
  1O   1py        0.104792 -0.113873 -0.000000 -0.000000  0.000001  0.000009
  1O   2pz       -1.106211 -1.017987  0.000000  0.000000 -0.000013  0.000002
  1O   2px       -0.000000  0.000001  2.853521 -0.137017 -0.000000 -0.000000
  1O   2py        1.017987 -1.106211  0.000000  0.000000 -0.000002 -0.000013
  1O   1dz2      -0.000000  0.000000  0.008377 -0.019658 -0.000000  0.114617
  1O   1dxz      -0.052866 -0.048650 -0.000000 -0.000000  0.000002 -0.000000
  1O   1dyz       0.000000  0.000000  0.000000  0.000000 -0.132344 -0.000000
  1O   1dx2y2     0.000000 -0.000000 -0.014510  0.034049 -0.000000  0.066174
  1O   1dxy       0.048650 -0.052866 -0.000000 -0.000000  0.000000  0.000002
  2O   1s         0.000000 -0.000000 -0.010948 -0.208189 -0.000000 -0.000000
  2O   2s         0.000000 -0.000000 -0.046184 -2.183195 -0.000000 -0.000000
  2O   3s         0.000000 -0.000001  2.885088  3.342548  0.000000  0.000000
  2O   1pz       -0.113905 -0.104820  0.000000 -0.000000  0.000009 -0.000001
  2O   1px       -0.000000  0.000000 -0.114099  0.130036  0.000000  0.000000
  2O   1py        0.104820 -0.113905  0.000000 -0.000000  0.000001  0.000009
  2O   2pz       -1.106114 -1.017898 -0.000000  0.000000 -0.000013  0.000002
  2O   2px        0.000000 -0.000001  2.853522  0.137018  0.000000  0.000000
  2O   2py        1.017898 -1.106114 -0.000000  0.000000 -0.000002 -0.000013
  2O   1dz2      -0.000000  0.000000 -0.008377 -0.019658 -0.000000  0.114617
  2O   1dxz       0.052871  0.048654 -0.000000  0.000000 -0.000002  0.000000
  2O   1dyz       0.000000  0.000000 -0.000000  0.000000 -0.132343 -0.000000
  2O   1dx2y2     0.000000 -0.000000  0.014510  0.034049 -0.000000  0.066174
  2O   1dxy      -0.048654  0.052871 -0.000000  0.000000 -0.000000 -0.000002
                     24        25        26        27        28        29   
                   1.35893   1.35893   1.59298   2.08830   2.57639   2.57640
                   0.00000   0.00000   0.00000   0.00000   0.00000   0.00000
                  --------  --------  --------  --------  --------  --------
  0C   1s        -0.000000 -0.000000  0.000000 -0.001909  0.000000  0.000000
  0C   2s         0.000000  0.000000  0.000002  7.362764 -0.000000  0.000000
  0C   3s         0.000000  0.000000 -0.000004  1.693639 -0.000000  0.000000
[...]

------------------------------------------------------------------------------
                            ORCA SCF RESPONSE CALCULATION
------------------------------------------------------------------------------

GBWName                                 ... job.gbw
Number of atoms                         ...      3
Number of basis functions               ...     42
Max core memory                         ...   1024 MB

Electric field perturbation             ... YES
Quadrupolar field perturbation          ...  NO
Magnetic field perturbation (no GIAO)   ...  NO
Magnetic field perturbation (with GIAO) ...  NO
Linear momentum (velocity) perturbation ...  NO
Spin-orbit coupling perturbation        ...  NO
Choice of electric origin               ... Center of mass
Position of electric origin             ...     0.000000    -0.000000    -0.000000
Choice of magnetic origin               ... GIAO
Position of magnetic origin             ...     0.000000     0.000000     0.000000
Nuclear geometric perturbations         ... YES (   9 perturbations)
Nucleus-orbit perturbations             ...  NO (   0 perturbations)
Spin-dipole/Fermi contact perturbations ...  NO (   0 perturbations)

Total number of real perturbations      ...     12
Total number of imaginary perturbations ...      0
Total number of triplet perturbations   ...      0
Total number of SOC perturbations       ...      0


                                **********************
                                * REAL PERTURBATIONS *
                                **********************



-------------------
SHARK CP-SCF DRIVER
-------------------

Dimension of the orbital basis          ...     42
Dimension of the CPSCF-problem          ...    341
Number of operators                     ...      1
Max. number of iterations               ...    128
Convergence Tolerance                   ... 1.0e-04
Number of perturbations                 ...     12
Perturbation type                       ... REAL

----------------------------
POPLE LINEAR EQUATION SOLVER
----------------------------

  ITERATION   0:   ||err||_max =   7.4459e-01 (   0.1 sec   0/ 12 done)
  ITERATION   1:   ||err||_max =   6.6089e-02 (   0.1 sec   0/ 12 done)
  ITERATION   2:   ||err||_max =   9.1528e-03 (   0.1 sec   0/ 12 done)
  ITERATION   3:   ||err||_max =   1.6210e-03 (   0.1 sec   4/ 12 done)
  ITERATION   4:   ||err||_max =   2.6271e-04 (   0.1 sec  10/ 12 done)
  ITERATION   5:   ||err||_max =   2.6676e-05 (   0.1 sec  12/ 12 done)

CP-SCF equations solved in   0.6 sec
Response densities calculated in   0.0 sec

Maximum memory used throughout the entire SCFRESP-calculation: 7.1 MB

------------------------------------------------------------------------------
                              ORCA PROPERTY CALCULATIONS
------------------------------------------------------------------------------

GBWName                                 ... job.gbw
Number of atoms                         ...      3
Number of basis functions               ...     42
Max core memory                         ...   1024 MB

Electric properties:
Dipole moment                           ... YES
Quadrupole moment                       ...  NO
Static polarizability (Dipole/Dipole)   ... YES
Static polarizability (Dipole/Quad.)    ...  NO
Static polarizability (Quad./Quad.)     ...  NO
Static polarizability (Velocity)        ...  NO

Atomic electric properties:
Dipole moment                           ...  NO
Quadrupole moment                       ...  NO
Static polarizability                   ...  NO

Choice of electric origin               ... Center of mass
Position of electric origin             ...     0.000000    -0.000000    -0.000000

General magnetic properties:
Magnetizability                         ...  NO

EPR properties:
g-Tensor (aka g-matrix)                 ...  NO
Zero-Field splitting spin-orbit         ...  NO
Zero-field splitting spin-spin          ...  NO
Hyperfine couplings                     ...  NO (   0 nuclei)
Quadrupole couplings                    ...  NO (   0 nuclei)
Contact density                         ...  NO (   0 nuclei)

NMR properties:
Chemical shifts                         ...  NO (   0 nuclei)
Spin-rotation constants                 ...  NO (   0 nuclei)
Spin-spin couplings                     ...  NO (   0 nuclei,    0 pairs)

Choice of magnetic origin               ... GIAO
Position of magnetic origin             ...     0.000000     0.000000     0.000000

Properties with geometric perturbations:
SCF Hessian                             ... YES
IR spectrum                             ... YES
VCD spectrum                            ...  NO
X-ray spectroscopy properties:
SCF XES/XAS/RIXS spectra                ...  NO


-------------
DIPOLE MOMENT
-------------

Method             : SCF
Type of density    : Electron Density
Multiplicity       :   1
Irrep              :   0
Energy             :  -182.2226724099653268 Eh
Relativity type    : 
Basis              : AO
                                X                 Y                 Z
Electronic contribution:     -0.000008559       0.000000058       0.000000008
Nuclear contribution   :      0.000000011      -0.000000000      -0.000000000
                        -----------------------------------------
Total Dipole Moment    :     -0.000008548       0.000000057       0.000000008
                        -----------------------------------------
Magnitude (a.u.)       :      0.000008548
Magnitude (Debye)      :      0.000021728



--------------------
Rotational spectrum 
--------------------
 
Rotational constants in cm-1:             0.000000             1.454611             1.454611 
Rotational constants in MHz :             0.000000         43608.149761         43608.149761 

Dipole components along the rotational axes: 
x,y,z [a.u.] :     0.000009     0.000000    -0.000000 
x,y,z [Debye]:     0.000022     0.000000    -0.000000 

 

Dipole moment calculation done in   0.0 sec 


---------------------------------------------------
STATIC POLARIZABILITY TENSOR (Dipole/Dipole)
---------------------------------------------------

Method             : SCF
Type of density    : Electron Density
Type of derivative : Electric Field (Direction=X)
Multiplicity       :   1
Irrep              :   0
Relativity type    : 
Basis              : AO

The raw cartesian tensor (atomic units):
       8.425292028         0.000000006        -0.000000006  
       0.000000006         4.126177159         0.000000007  
      -0.000000006         0.000000007         4.126177145  
diagonalized tensor: 
       4.126177143         4.126177161         8.425292028  

Orientation: 
       0.000000002         0.000000001         1.000000000  
      -0.380054613        -0.924964049         0.000000001  
       0.924964049        -0.380054613        -0.000000001  

Isotropic polarizability :   5.55922


Polarizability tensor calculation done in   0.0 sec 

-----------
SCF HESSIAN
-----------

Occupied/Occupied contributions to the Hessian:
   => Occupied/Occupied contributions              ... done (  0.0 sec)
Perturbed density contributions to the Hessian:
   => Perturbed density contributions              ... done (  0.0 sec)
Explicit contributions to the Hessian:
   => Nuclear repulsion Hessian                    ... done (  0.0 sec)
   => HCore and overlap Hessian                    ... done (  0.0 sec)
   => RI-J Hessian                                 ... done (  0.2 sec)
   => COSX Hessian                                 ... done ( 10.8 sec)
   => XC-Hessian                                   ... done (  0.7 sec)
   => Explicit contributions done
E-field response densities           ... done
Dipole derivatives                                 ... done (  0.0 sec)
Mass weighting the Hessian           ... done
Calculating normal modes             ... done
Scaling frequencies                  ... done

-----------------------
VIBRATIONAL FREQUENCIES
-----------------------

Scaling factor for frequencies =  1.000000000  (already applied!)

     0:       0.00 cm**-1
     1:       0.00 cm**-1
     2:       0.00 cm**-1
     3:       0.00 cm**-1
     4:       0.00 cm**-1
     5:   -6886.02 cm**-1  ***imaginary mode***
     6:   -6886.02 cm**-1  ***imaginary mode***
     7:    7710.69 cm**-1
     8:   14640.89 cm**-1


------------
NORMAL MODES
------------

These modes are the Cartesian displacements weighted by the diagonal matrix
M(i,i)=1/sqrt(m[i]) where m[i] is the mass of the displaced atom
Thus, these vectors are normalized but *not* orthogonal

                  0          1          2          3          4          5    
      0       0.000000   0.000000   0.000000   0.000000   0.000000   0.000000
      1       0.000000   0.000000   0.000000   0.000000   0.000000   0.670849
      2       0.000000   0.000000   0.000000   0.000000   0.000000   0.574555
      3       0.000000   0.000000   0.000000   0.000000   0.000000  -0.000000
      4       0.000000   0.000000   0.000000   0.000000   0.000000  -0.251814
      5       0.000000   0.000000   0.000000   0.000000   0.000000  -0.215669
      6       0.000000   0.000000   0.000000   0.000000   0.000000   0.000000
      7       0.000000   0.000000   0.000000   0.000000   0.000000  -0.251815
      8       0.000000   0.000000   0.000000   0.000000   0.000000  -0.215670
                  6          7          8    
      0      -0.000000  -0.000006   0.883262
      1      -0.574555   0.000000  -0.000000
      2       0.670849   0.000000   0.000000
      3       0.000000   0.707109  -0.331544
      4       0.215669  -0.000000   0.000000
      5      -0.251814  -0.000000   0.000000
      6      -0.000000  -0.707105  -0.331551
      7       0.215670  -0.000000  -0.000000
      8      -0.251815  -0.000000  -0.000000


-----------
IR SPECTRUM
-----------

 Mode   freq       eps      Int      T**2         TX        TY        TZ
       cm**-1   L/(mol*cm) km/mol    a.u.
----------------------------------------------------------------------------
  7:   7710.69   0.000000    0.00  0.000000  (-0.000001  0.000000  0.000000)
  8:  14640.89   0.250419  1265.52  0.005338  ( 0.073059  0.000000  0.000000)

* The epsilon (eps) is given for a Dirac delta lineshape.
** The dipole moment derivative (T) already includes vibrational overlap.

The first frequency considered to be a vibration is 7
The total number of vibrations considered is 2


--------------------------
THERMOCHEMISTRY AT 298.15K
--------------------------

Temperature         ...   298.15 K
Pressure            ...     1.00 atm
Total Mass          ...    44.01 AMU
Quasi RRHO          ...     True
Cut-Off Frequency   ...     1.00 cm^-1
The molecule is recognized as being linear

Throughout the following assumptions are being made:
  (1) The electronic state is orbitally nondegenerate
  (2) There are no thermally accessible electronically excited states
  (3) Hindered rotations indicated by low frequency modes are not
      treated as such but are treated as vibrations and this may
      cause some error
  (4) All equations used are the standard statistical mechanics
      equations for an ideal gas
  (5) All vibrations are strictly harmonic

freq.    7710.69  E(vib)   ...       0.00 
freq.   14640.89  E(vib)   ...       0.00 

------------
INNER ENERGY
------------

The inner energy is: U= E(el) + E(ZPE) + E(vib) + E(rot) + E(trans)
    E(el)   - is the total energy from the electronic structure calculation
              = E(kin-el) + E(nuc-el) + E(el-el) + E(nuc-nuc)
    E(ZPE)  - the the zero temperature vibrational energy from the frequency calculation
    E(vib)  - the the finite temperature correction to E(ZPE) due to population
              of excited vibrational states
    E(rot)  - is the rotational thermal energy
    E(trans)- is the translational thermal energy

Summary of contributions to the inner energy U:
Electronic energy                ...   -182.22267241 Eh
Zero point energy                ...      0.05092064 Eh      31.95 kcal/mol
Thermal vibrational correction   ...      0.00000000 Eh       0.00 kcal/mol
Thermal rotational correction    ...      0.00094418 Eh       0.59 kcal/mol
Thermal translational correction ...      0.00141627 Eh       0.89 kcal/mol
-----------------------------------------------------------------------
Total thermal energy                   -182.16939131 Eh


Summary of corrections to the electronic energy:
(perhaps to be used in another calculation)
Total thermal correction                  0.00236045 Eh       1.48 kcal/mol
Non-thermal (ZPE) correction              0.05092064 Eh      31.95 kcal/mol
-----------------------------------------------------------------------
Total correction                          0.05328110 Eh      33.43 kcal/mol


--------
ENTHALPY
--------

The enthalpy is H = U + kB*T
                kB is Boltzmann's constant
Total thermal energy              ...   -182.16939131 Eh 
Thermal Enthalpy correction       ...      0.00094421 Eh       0.59 kcal/mol
-----------------------------------------------------------------------
Total Enthalpy                    ...   -182.16844711 Eh


Note: Rotational entropy computed according to Herzberg 
Infrared and Raman Spectra, Chapter V,1, Van Nostrand Reinhold, 1945 
Point Group:  D(inf)h, Symmetry Number:   1  
Rotational constants in cm-1:     0.000000     1.454611     1.454611 

Vibrational entropy computed according to the QRRHO of S. Grimme
Chem.Eur.J. 2012 18 9955 using a reference frequency of 100.0 cm-1


-------
ENTROPY
-------

The entropy contributions are T*S = T*(S(el)+S(vib)+S(rot)+S(trans))
     S(el)   - electronic entropy
     S(vib)  - vibrational entropy
     S(rot)  - rotational entropy
     S(trans)- translational entropy
The entropies will be listed as multiplied by the temperature to get
units of energy

Electronic entropy                ...      0.00000000 Eh      0.00 kcal/mol
Vibrational entropy               ...     -0.00000000 Eh     -0.00 kcal/mol
Rotational entropy                ...      0.00562644 Eh      3.53 kcal/mol
Translational entropy             ...      0.01770880 Eh     11.11 kcal/mol
-----------------------------------------------------------------------
Final entropy term                ...      0.02333524 Eh     14.64 kcal/mol


-------------------
GIBBS FREE ENERGY
-------------------

The Gibbs free energy is G = H - T*S

Total enthalpy                    ...   -182.16844711 Eh 
Total entropy correction          ...     -0.02333524 Eh    -14.64 kcal/mol
-----------------------------------------------------------------------
Final Gibbs free energy         ...   -182.19178235 Eh

For completeness - the Gibbs free energy minus the electronic energy
G-E(el)                           ...      0.03089006 Eh     19.38 kcal/mol


Maximum memory used throughout the entire PROP-calculation: 10.1 MB

--------------------------------
SUGGESTED CITATIONS FOR THIS RUN
--------------------------------

Below you find a list of papers that are relevant to this ORCA run
We neither can nor want to force you to cite these papers, but we appreciate if you do
You receive ORCA, which is the product of decades of hard work by many enthusiastic individuals, for free
The only thing we kindly ask in return is that you cite our papers,
We deeply appreciate it, if you show your appreciation for ORCA by not just citing the generic ORCA reference.

Please note that relegating all ORCA citations to the supporting information does *not* help us.
SI sections are not indexed - citations you put there will not count into any citation statistics
But we need these citations in order to attract the funding resources that allow us to do what we are doing

Therefore, if you are a happy ORCA user, please consider citing a few of the papers listed below in the main body of your paper

In addition to the list printed below, the program has created the file job.bibtex that contains the list in bibtex format
You can import this file easily into all common literature databanks and citation aid programs


List of essential papers. We consider these as the minimum necessary citations

  1. Neese,F.
     Software update: the ORCA program system, version 5.0
     WIRES Comput. Molec. Sci., 2022 12(1)e1606
     doi.org/10.1002/wcms.1606

List of papers to cite with high priority. The work reported in these papers was absolutely
necessary for this run to complete.
Our perspective: the developers of density functionals and basis sets usually get cited in chemistry papers
Good! But without the algorithms to do something with them, the functionals or basis sets would not do anything.
Hence, in our opinion, the algorithm design and method developments papers are equally worthy of getting cited

  1. Neese,F.
     An improvement of the resolution of the identity approximation for the formation of the Coulomb matrix
     J. Comp. Chem., 2003 24(14)1740-1747
     doi.org/10.1002/jcc.10318
  2. Neese,F.; Wennmohs,F.; Hansen,A.; Becker,U.
     Efficient, approximate and parallel Hartree-Fock and hybrid DFT calculations. A 'chain-of-spheres' algorithm for the Hartree-Fock exchange
     Chem. Phys., 2009 356(1-3)98-109
     doi.org/10.1016/j.chemphys.2008.10.036
  3. Bykov,D.; Petrenko,T.; Izsak,R.; Kossmann,S.; Becker,U.; Valeev,E.; Neese,F.
     Efficient implementation of the analytic second derivatives of Hartree-Fock and hybrid DFT energies: a detailed analysis of different approximations
     Molec. Phys., 2015 113 1961-1977
     doi.org/10.1080/00268976.2015.1025114
  4. Helmich-Paris,B.; de Souza,B.; Neese,F.; Izsák,R.
     An improved chain of spheres for exchange algorithm
     J. Chem. Phys., 2021 155 104109
     doi.org/doi: 10.1063/5.0058766.
  5. Neese,F.
     The SHARK Integral Generation and Digestion System
     J. Comp. Chem., 2022  1-16
     doi.org/10.1002/jcc.26942

List of suggested additional citations. These are papers that are important in the 'surrounding' of 
of this run, or papers that preceded the highly important papers. If you like your results we are grateful for a citation.

  1. Izsak,R.; Neese,F.
     An overlap fitted chain of spheres exchange method
     J. Chem. Phys., 2011 135 144105
     doi.org/10.1063/1.3646921
  2. Izsak,R.; Hansen,A.; Neese,F.
     The resolution of identity and chain of spheres approximations for the LPNO-CCSD singles Fock term
     Molec. Phys., 2012 110 2413-2417
     doi.org/10.1080/00268976.2012.687466
  3. Neese,F.
     The ORCA program system
     WIRES Comput. Molec. Sci., 2012 2(1)73-78
     doi.org/10.1002/wcms.81
  4. Izsak,R.; Neese,F.; Klopper,W.
     Robust fitting techniques in the chain of spheres approximation to the Fock exchange: The role of the complementary space
     J. Chem. Phys., 2013 139 
     doi.org/10.1063/1.4819264
  5. Neese,F.
     Software update: the ORCA program system, version 4.0
     WIRES Comput. Molec. Sci., 2018 8(1)1-6
     doi.org/10.1002/wcms.1327
  6. Neese,F.; Wennmohs,F.; Becker,U.; Riplinger,C.
     The ORCA quantum chemistry program package
     J. Chem. Phys., 2020 152 Art. No. L224108
     doi.org/10.1063/5.0004608

List of optional additional citations

  1. Neese,F.
     Approximate second-order SCF convergence for spin unrestricted wavefunctions
     Chem. Phys. Lett., 2000 325(1-3)93-98
     doi.org/10.1016/s0009-2614(00)00662-x

Timings for individual modules:

Sum of individual times          ...       14.781 sec (=   0.246 min)
Startup calculation              ...        0.174 sec (=   0.003 min)   1.2 %
SCF iterations                   ...        0.642 sec (=   0.011 min)   4.3 %
Property integrals               ...        1.577 sec (=   0.026 min)  10.7 %
SCF Response                     ...        0.648 sec (=   0.011 min)   4.4 %
Property calculations            ...       11.740 sec (=   0.196 min)  79.4 %
                             ****ORCA TERMINATED NORMALLY****
TOTAL RUN TIME: 0 days 0 hours 0 minutes 14 seconds 837 msec
