
                                 *****************
                                 * O   R   C   A *
                                 *****************

                                            #,                                       
                                            ###                                      
                                            ####                                     
                                            #####                                    
                                            ######                                   
                                           ########,                                 
                                     ,,################,,,,,                         
                               ,,#################################,,                 
                          ,,##########################################,,             
                       ,#########################################, ''#####,          
                    ,#############################################,,   '####,        
                  ,##################################################,,,,####,       
                ,###########''''           ''''###############################       
              ,#####''   ,,,,##########,,,,          '''####'''          '####       
            ,##' ,,,,###########################,,,                        '##       
           ' ,,###''''                  '''############,,,                           
         ,,##''                                '''############,,,,        ,,,,,,###''
      ,#''                                            '''#######################'''  
     '                                                          ''''####''''         
             ,#######,   #######,   ,#######,      ##                                
            ,#'     '#,  ##    ##  ,#'     '#,    #''#        ,####,   ,####,        
            ##       ##  ##   ,#'  ##            #'  '#       #'       #'  '#        
            ##       ##  #######   ##           ,######,      #####,   #    #        
            '#,     ,#'  ##    ##  '#,     ,#' ,#      #,     #,   #   #,  ,#        
             '#######'   ##     ##  '#######'  #'      '#     '####' # '####'        



                #########################################################
                #                        -***-                          #
                #          Department of theory and spectroscopy        #
                #                                                       #
                #                      Frank Neese                      #
                #                                                       #
                #     Directorship, Architecture, Infrastructure        #
                #                    SHARK, DRIVERS                     #
                #        Core code/Algorithms in most modules           #
                #                                                       #
                #        Max Planck Institute fuer Kohlenforschung      #
                #                Kaiser Wilhelm Platz 1                 #
                #                 D-45470 Muelheim/Ruhr                 #
                #                      Germany                          #
                #                                                       #
                #                  All rights reserved                  #
                #                        -***-                          #
                #########################################################


                         Program Version 6.0.1  -  RELEASE   -


 With contributions from (in alphabetic order):
[Max-Planck-Institut fuer Kohlenforschung]                               
  Daniel Aravena         : Magnetic Suceptibility                        
  Michael Atanasov       : Ab Initio Ligand Field Theory (pilot matlab implementation)
  Alexander A. Auer      : GIAO ZORA, VPT2 properties, NMR spectrum      
  Ute Becker             : All parallelization in ORCA, NUMFREQ, NUMCALC 
  Giovanni Bistoni       : ED, misc. LED, open-shell LED, HFLD           
  Martin Brehm           : Molecular dynamics                            
  Dmytro Bykov           : pre 5.0 version of the SCF Hessian            
  Marcos Casanova-Páez   : Triplet and SCS-CIS(D). UHF-(DLPNO)-IP/EA/STEOM-CCSD. UHF-CVS-IP/STEOM-CCSD   
  Vijay G. Chilkuri      : MRCI spin determinant printing, contributions to CSF-ICE 
  Pauline Colinet        : FMM embedding                                 
  Dipayan Datta          : RHF DLPNO-CCSD density                        
  Achintya Kumar Dutta   : EOM-CC, STEOM-CC                              
  Nicolas Foglia         : Exact transition moments, OPA infrastructure, MCD improvements    
  Dmitry Ganyushin       : Spin-Orbit,Spin-Spin,Magnetic field MRCI      
  Miquel Garcia-Rates    : C-PCM and meta-GGA Hessian, CCSD/C-PCM, Gaussian charge scheme 
  Tiago L. C. Gouveia    : GS-ROHF, GS-ROCIS                             
  Yang Guo               : DLPNO-NEVPT2, F12-NEVPT2, CIM, IAO-localization        
  Andreas Hansen         : Spin unrestricted coupled pair/coupled cluster methods 
  Ingolf Harden          : AUTO-CI MPn and infrastructure                
  Benjamin Helmich-Paris : MC-RPA, TRAH-(SCF,CASSCF), AVAS, COSX integrals, SCF dyn. polar. 
  Lee Huntington         : MR-EOM, pCC                                   
  Robert Izsak           : Overlap fitted RIJCOSX, COSX-SCS-MP3, EOM     
  Riya Kayal             : Wick's Theorem for AUTO-CI, AUTO-CI UHF-CCSDT 
  Emily Kempfer          : AUTO-CI, RHF CISDT and CCSDT                  
  Christian Kollmar      : KDIIS, OOCD, Brueckner-CCSD(T), CCSD density, CASPT2, CASPT2-K, improved NEVPT2 
  Axel Koslowski         : Symmetry handling                             
  Simone Kossmann        : meta-GGA functionals, TD-DFT gradient, OOMP2, (MP2 Hessian; deprecated post 5.0) 
  Lucas Lang             : DCDCAS                                        
  Marvin Lechner         : AUTO-CI (C++ implementation), FIC-MRCC        
  Spencer Leger          : CASSCF response                               
  Dagmar Lenk            : GEPOL surface, SMD, ORCA-2-JSON               
  Dimitrios Liakos       : Extrapolation schemes; Compound Job, initial MDCI parallelization 
  Dimitrios Manganas     : Further ROCIS development; embedding schemes. LFT, Crystal Embedding 
  Dimitrios Pantazis     : SARC Basis sets                               
  Anastasios Papadopoulos: AUTO-CI, single reference methods and gradients 
  Taras Petrenko         : pre 6.0 DFT Hessian and TD-DFT gradient, (ASA, deprecated), ECA, 1-Electron XAS/XES, NRVS 
  Peter Pinski           : DLPNO-MP2, DLPNO-MP2 Gradient                 
  Christoph Reimann      : Effective Core Potentials                     
  Marius Retegan         : Local ZFS, SOC                                
  Christoph Riplinger    : Optimizer, TS searches, QM/MM, DLPNO-CCSD(T), (RO)-DLPNO pert. Triples 
  Michael Roemelt        : Original ROCIS implementation                 
  Masaaki Saitow         : Open-shell DLPNO-CCSD energy and density      
  Barbara Sandhoefer     : DKH picture change effects                    
  Kantharuban Sivalingam : CASSCF convergence/infrastructure, NEVPT2 and variants, FIC-MRCI 
  Bernardo de Souza      : ESD, SOC TD-DFT                               
  Georgi L. Stoychev     : AutoAux, RI-MP2 NMR, DLPNO-MP2 response, X2C  
  Van Anh Tran           : RI-MP2 g-tensors                              
  Willem Van den Heuvel  : Paramagnetic NMR                              
  Zikuan Wang            : NOTCH, Electric field optimization            
  Frank Wennmohs         : Technical directorship and infrastructure     
  Hang Xu                : AUTO-CI-Response properties                   
                                                                         
[FACCTs GmbH]                                                            
  Markus Bursch, Miquel Garcia-Rates, Christoph Riplinger, Bernardo de Souza, Georgi L. Stoychev 
                                                                 
  APM, Basis sets (HGBS, AHGBS, def-TZVP (Ac-Lr), def2-XVPD (La-Lu)), CI-OPT, improved COSX, DLPNO-Multilevel,           
  DOCKER, DRACO, updates on ESD, GOAT, IRC, LR-CPCM, MBIS, meta-GGA TD-DFT gradient, ML-optimized integration grids, 
  MM, NACMEs, nearIR, NEB, NEB-TS, NL-DFT gradient (VV10), 2- and 3-layer-ONIOM, interface openCOSMO-RS, QMMM,   
  Crystal-QMMM, SF, symmetry and pop. for TD-DFT, r2SCAN hybrids, SOLVATOR                                   
                                                                         
[Other institutions]                                                     
  V. Asgeirsson          : NEB                                           
  Christoph Bannwarth    : sTDA-DFT, sTD-DFT, PBEh-3c, B97-3c, D3        
  Sebastian Ehlert       : rSCAN, r2SCAN, r2SCAN-3c, D4, dhf basis sets  
  Marvin Friede          : D4 for Fr, Ra, Ac-Lr                          
  Lars Goerigk           : TD-DFT with DH, B97 family of functionals     
  Stefan Grimme          : VdW corrections, initial TS optimization, DFT functionals, gCP, sTDA/sTD-DF 
  Waldemar Hujo          : DFT-NL                                        
  H. Jonsson             : NEB                                           
  Holger Kruse           : gCP                                           
  Marcel Mueller         : wB97X-3c, vDZP basis set                      
  Hagen Neugebauer       : wr2SCAN                                       
  Tobias Risthaus        : range-separated hybrid DFT                    
  Lukas Wittmann         : regularized MP2, r2SCAN double-hybrids, wr2SCAN        
                                                                         
We gratefully acknowledge several colleagues who have allowed us to      
interface, adapt or use parts of their codes:                            
  Ed Valeev, F. Pavosevic, A. Kumar             : LibInt (2-el integral package), F12 methods 
  Garnet Chan, S. Sharma, J. Yang, R. Olivares  : DMRG                   
  Ulf Ekstrom                                   : XCFun DFT Library      
  Mihaly Kallay                                 : mrcc  (arbitrary order and MRCC methods)
  Frank Weinhold                                : gennbo (NPA and NBO analysis)           
  Simon Mueller                                 : openCOSMO-RS                            
  Christopher J. Cramer and Donald G. Truhlar   : smd solvation model                     
  S Lehtola, MJT Oliveira, MAL Marques          : LibXC Library                           
  Liviu Ungur et al                             : ANISO software                          


 Your calculation uses the libint2 library for the computation of 2-el integrals
 For citations please refer to: http://libint.valeyev.net

 Your ORCA version has been built with support for libXC version: 6.2.2
 For citations please refer to: https://libxc.gitlab.io

 This ORCA versions uses:
   CBLAS   interface :  Fast vector & matrix operations
   LAPACKE interface :  Fast linear algebra routines
   SCALAPACK package :  Parallel linear algebra routines
   Shared memory     :  Shared parallel matrices
   BLAS/LAPACK       :  OpenBLAS 0.3.27  USE64BITINT DYNAMIC_ARCH NO_AFFINITY SkylakeX SINGLE_THREADED
        Core in use  :  SkylakeX
   Copyright (c) 2011-2014, The OpenBLAS Project


Warning: RI is on but no J-basis has been assigned. Assigning Def2/J (nothing to worry about!)
================================================================================

----- Orbital basis set information -----
Your calculation utilizes the basis: def2-SVP
   F. Weigend and R. Ahlrichs, Phys. Chem. Chem. Phys. 7, 3297 (2005).

----- AuxJ basis set information -----
Your calculation utilizes the auxiliary basis: def2/J
   F. Weigend, Phys. Chem. Chem. Phys. 8, 1057 (2006).

================================================================================
                                        WARNINGS
                       Please study these warnings very carefully!
================================================================================

WARNING: Old DensityContainer found on disk!
         Will remove this file - 
         If you want to keep old densities, please start your calculation with a different basename. 


WARNING: Analytical Hessian not available for calculation of RAMAN spectra
       : If you need RAMAN spectra, please choose NumFreq!
       : Will only calculate polarizabilties



================================================================================
                                       INPUT FILE
================================================================================
NAME = job.inp
|  1> ! B3LYP def2-SVP TightSCF Freq
|  2> %output
|  3>   PrintLevel 5
|  4> end
|  5> * xyz 0 1
|  6>    C         -0.0148897368          0.0000000193          0.0000000017
|  7>    O          0.6204357055         -0.0000000100         -0.0000000009
|  8>    O         -0.6107498391         -0.0000000093         -0.0000000007
|  9> *
| 10> %elprop
| 11>  Polar 1
| 12> end
| 13> 
| 14>                          ****END OF INPUT****
================================================================================

                       ****************************
                       * Single Point Calculation *
                       ****************************

---------------------------------
CARTESIAN COORDINATES (ANGSTROEM)
---------------------------------
  C     -0.014890    0.000000    0.000000
  O      0.620436   -0.000000   -0.000000
  O     -0.610750   -0.000000   -0.000000

----------------------------
CARTESIAN COORDINATES (A.U.)
----------------------------
  NO LB      ZA    FRAG     MASS         X           Y           Z
   0 C     6.0000    0    12.011   -0.028138    0.000000    0.000000
   1 O     8.0000    0    15.999    1.172454   -0.000000   -0.000000
   2 O     8.0000    0    15.999   -1.154150   -0.000000   -0.000000

--------------------------------
INTERNAL COORDINATES (ANGSTROEM)
--------------------------------
 C      0   0   0     0.000000000000     0.00000000     0.00000000
 O      1   0   0     0.635325442300     0.00000000     0.00000000
 O      1   2   0     0.595860102300   179.99999488     0.00000000

---------------------------
INTERNAL COORDINATES (A.U.)
---------------------------
 C      0   0   0     0.000000000000     0.00000000     0.00000000
 O      1   0   0     1.200591091859     0.00000000     0.00000000
 O      1   2   0     1.126012407477   179.99999488     0.00000000

---------------------
BASIS SET INFORMATION
---------------------
There are 2 groups of distinct atoms

 Group   1 Type C   : 7s4p1d contracted to 3s2p1d pattern {511/31/1}
 Group   2 Type O   : 7s4p1d contracted to 3s2p1d pattern {511/31/1}

Atom   0C    basis set group =>   1
Atom   1O    basis set group =>   2
Atom   2O    basis set group =>   2

-------------------------
BASIS SET IN INPUT FORMAT
-------------------------

 # Basis set for element : C 
 NewGTO C 
 S 5 
   1    1238.4016938000      0.0055173650
   2     186.2900499200      0.0410888285
   3      42.2511763460      0.1822538213
   4      11.6765579320      0.4682845944
   5       3.5930506482      0.4457581734
 S 1 
   1       0.4024514736      1.0000000000
 S 1 
   1       0.1309018267      1.0000000000
 P 3 
   1       9.4680970621      0.0568883320
   2       2.0103545142      0.3129405934
   3       0.5477100471      0.7606501651
 P 1 
   1       0.1526861379      1.0000000000
 D 1 
   1       0.8000000000      1.0000000000
  end;

 # Basis set for element : O 
 NewGTO O 
 S 5 
   1    2266.1767785000     -0.0053893504
   2     340.8701019100     -0.0402347214
   3      77.3631351670     -0.1800818421
   4      21.4796449400     -0.4682885766
   5       6.6589433124     -0.4469261716
 S 1 
   1       0.8097597567      1.0000000000
 S 1 
   1       0.2553077223      1.0000000000
 P 3 
   1      17.7215043170      0.0626302488
   2       3.8635505440      0.3333113849
   3       1.0480920883      0.7414863830
 P 1 
   1       0.2764154441      1.0000000000
 D 1 
   1       1.2000000000      1.0000000000
  end;

---------------------------------
AUXILIARY/J BASIS SET INFORMATION
---------------------------------
There are 2 groups of distinct atoms

 Group   1 Type C   : 12s5p4d2f1g contracted to 6s4p3d1f1g pattern {711111/2111/211/2/1}
 Group   2 Type O   : 12s5p4d2f1g contracted to 6s4p3d1f1g pattern {711111/2111/211/2/1}

Atom   0C    basis set group =>   1
Atom   1O    basis set group =>   2
Atom   2O    basis set group =>   2

-------------------------------------
AUXILIARY/J BASIS SET IN INPUT FORMAT
-------------------------------------

 # Auxiliary/J basis set for element : C 
 NewAuxJGTO C 
 S 7 
   1    1861.0916331000      0.0134602335
   2     642.9939764000      0.0299160374
   3     235.1105725000      0.1008649584
   4      90.7028894000      0.2370970548
   5      36.7794552000      0.3924037254
   6      15.6046273000      0.3195862154
   7       6.8907294000      0.0530104441
 S 1 
   1       3.1478850000     -1.0000000000
 S 1 
   1       1.4777287000      1.0000000000
 S 1 
   1       0.7076466000      1.0000000000
 S 1 
   1       0.3430122000      1.0000000000
 S 1 
   1       0.1669453000      1.0000000000
 P 2 
   1      13.5472892000     -0.6769313712
   2       5.4669419000     -0.3779500978
 P 1 
   1       2.1751721000      1.0000000000
 P 1 
   1       0.8582194000      1.0000000000
 P 1 
   1       0.3376720000      1.0000000000
 D 2 
   1       5.9287253000     -0.3533329857
   2       1.9809209000     -0.7456525731
 D 1 
   1       0.8055417000     -1.0000000000
 D 1 
   1       0.3531244000     -1.0000000000
 F 2 
   1       1.6755626000      0.6311076882
   2       0.5997536000      0.4968166032
 G 1 
   1       1.0024600000     -1.0000000000
  end;

 # Auxiliary/J basis set for element : O 
 NewAuxJGTO O 
 S 7 
   1    2876.8216605000      0.0168151159
   2    1004.7443032000      0.0340137548
   3     369.7579954000      0.1194951309
   4     142.9442404000      0.2664627624
   5      57.8366425000      0.4202764046
   6      24.3864983000      0.2765077335
   7      10.6622662000      0.0057008815
 S 1 
   1       4.8070437000     -1.0000000000
 S 1 
   1       2.2210770000      1.0000000000
 S 1 
   1       1.0447795000      1.0000000000
 S 1 
   1       0.4968425000      1.0000000000
 S 1 
   1       0.2371384000      1.0000000000
 P 2 
   1      64.2613382000     -0.2731534179
   2      16.3006076000     -0.8168011598
 P 1 
   1       4.3550542000      1.0000000000
 P 1 
   1       1.2019554000      1.0000000000
 P 1 
   1       0.3354196000      1.0000000000
 D 2 
   1       9.2146611000     -0.4661230638
   2       2.8435251000     -0.6600908911
 D 1 
   1       0.9955759000     -1.0000000000
 D 1 
   1       0.3649441000     -1.0000000000
 F 2 
   1       2.6420115000      0.5931563945
   2       0.7345613000      0.5931563945
 G 1 
   1       1.3931000000     -1.0000000000
  end;


Checking for AutoStart:
The File: job.gbw exists
Trying to determine its content:
     ... Fine, the file contains calculation information
     ... Fine, the calculation information was read
     ... Fine, the file contains a basis set
     ... Fine, the basis set was read
     ... Fine, the file contains a geometry
     ... Fine, the geometry was read
     ... Fine, the file contains a set of orbitals
     ... Fine, the orbitals can be read
     => possible old guess file was deleted
     => GBW file was renamed to GES file
     => GES file is set as startup file
     => Guess is set to MORead
     ... now leaving AutoStart

------------------------------------------------------------------------------
                             ORCA STARTUP CALCULATIONS
                           -- RI-GTO INTEGRALS CHOSEN --
------------------------------------------------------------------------------
------------------------------------------------------------------------------
                   ___                                                        
                  /   \      - P O W E R E D   B Y -                         
                 /     \                                                     
                 |  |  |   _    _      __       _____    __    __             
                 |  |  |  | |  | |    /  \     |  _  \  |  |  /  |          
                  \  \/   | |  | |   /    \    | | | |  |  | /  /          
                 / \  \   | |__| |  /  /\  \   | |_| |  |  |/  /          
                |  |  |   |  __  | /  /__\  \  |    /   |      \           
                |  |  |   | |  | | |   __   |  |    \   |  |\   \          
                \     /   | |  | | |  |  |  |  | |\  \  |  | \   \       
                 \___/    |_|  |_| |__|  |__|  |_| \__\ |__|  \__/        
                                                                              
                      - O R C A' S   B I G   F R I E N D -                    
                                      &                                       
                       - I N T E G R A L  F E E D E R -                       
                                                                              
 v1 FN, 2020, v2 2021, v3 2022-2024                                           
------------------------------------------------------------------------------


----------------------
SHARK INTEGRAL PACKAGE
----------------------

Number of atoms                             ...      3
Number of basis functions                   ...     42
Number of shells                            ...     18
Maximum angular momentum                    ...      2
Integral batch strategy                     ... SHARK/LIBINT Hybrid
RI-J (if used) integral strategy            ... SPLIT-RIJ (Revised 2003 algorithm where possible)
Printlevel                                  ...      1
Contraction scheme used                     ... SEGMENTED contraction
Prescreening option                         ... SCHWARTZ
   Thresh                                   ... 2.500e-11
   Tcut                                     ... 2.500e-12
   Tpresel                                  ... 2.500e-12 
Coulomb Range Separation                    ... NOT USED
Exchange Range Separation                   ... NOT USED
Multipole approximations                    ... NOT USED
Finite Nucleus Model                        ... NOT USED
CABS basis                                  ... NOT available
Auxiliary Coulomb fitting basis             ... AVAILABLE
   # of basis functions in Aux-J            ...    147
   # of shells in Aux-J                     ...     45
   Maximum angular momentum in Aux-J        ...      4
Auxiliary J/K fitting basis                 ... NOT available
Auxiliary Correlation fitting basis         ... NOT available
Auxiliary 'external' fitting basis          ... NOT available

Checking pre-screening integrals            ... done (  0.0 sec) Dimension = 18
Check shell pair data                       ... done (  0.0 sec)
Shell pair information
Shell pair cut-off parameter TPreSel        ...   2.5e-12
Total number of shell pairs                 ...       171
Shell pairs after pre-screening             ...       171
Total number of primitive shell pairs       ...       705
Primitive shell pairs kept                  ...       655
          la=0 lb=0:     45 shell pairs
          la=1 lb=0:     54 shell pairs
          la=1 lb=1:     21 shell pairs
          la=2 lb=0:     27 shell pairs
          la=2 lb=1:     18 shell pairs
          la=2 lb=2:      6 shell pairs

Calculating one electron integrals          ... done (  0.0 sec)
Calculating RI/J V-Matrix + Cholesky decomp.... done (  0.0 sec)
Calculating Nuclear repulsion               ... done (  0.0 sec) ENN=    110.116521480599 Eh

Diagonalization of the overlap matrix:
Smallest eigenvalue                        ... 1.060e-03
Time for diagonalization                   ...    0.000 sec
Threshold for overlap eigenvalues          ... 1.000e-07
Number of eigenvalues below threshold      ... 0
Time for construction of square roots      ...    0.000 sec
Total time needed                          ...    0.001 sec

-------------------
DFT GRID GENERATION
-------------------

General Integration Accuracy     IntAcc      ... 4.388
Radial Grid Type                 RadialGrid  ... OptM3 with GC (2021)
Angular Grid (max. ang.)         AngularGrid ... 4 (Lebedev-302)
Angular grid pruning method      GridPruning ... 4 (adaptive)
Weight generation scheme         WeightScheme... mBecke (2022)
Basis function cutoff            BFCut       ... 1.0000e-11
Integration weight cutoff        WCut        ... 1.0000e-14
Partially contracted basis set               ... off
Rotationally invariant grid construction     ... off
Angular grids for H and He will be reduced by one unit

Total number of grid points                  ...    18243
Total number of batches                      ...      287
Average number of points per batch           ...       63
Average number of grid points per atom       ...     6081

--------------------
COSX GRID GENERATION
--------------------

GRIDX 1
-------
General Integration Accuracy     IntAcc      ... 3.816
Radial Grid Type                 RadialGrid  ... OptM3 with GC (2021)
Angular Grid (max. ang.)         AngularGrid ... 1 (Lebedev-50)
Angular grid pruning method      GridPruning ... 4 (adaptive)
Weight generation scheme         WeightScheme... mBecke (2022)
Basis function cutoff            BFCut       ... 1.0000e-11
Integration weight cutoff        WCut        ... 1.0000e-14
Partially contracted basis set               ... on
Rotationally invariant grid construction     ... off
Angular grids for H and He will be reduced by one unit

Total number of grid points                  ...     2280
Total number of batches                      ...       19
Average number of points per batch           ...      120
Average number of grid points per atom       ...      760
UseSFitting                                  ... on

GRIDX 2
-------
General Integration Accuracy     IntAcc      ... 4.020
Radial Grid Type                 RadialGrid  ... OptM3 with GC (2021)
Angular Grid (max. ang.)         AngularGrid ... 2 (Lebedev-110)
Angular grid pruning method      GridPruning ... 4 (adaptive)
Weight generation scheme         WeightScheme... mBecke (2022)
Basis function cutoff            BFCut       ... 1.0000e-11
Integration weight cutoff        WCut        ... 1.0000e-14
Partially contracted basis set               ... on
Rotationally invariant grid construction     ... off
Angular grids for H and He will be reduced by one unit

Total number of grid points                  ...     5600
Total number of batches                      ...       45
Average number of points per batch           ...      124
Average number of grid points per atom       ...     1867
UseSFitting                                  ... on

GRIDX 3
-------
General Integration Accuracy     IntAcc      ... 4.338
Radial Grid Type                 RadialGrid  ... OptM3 with GC (2021)
Angular Grid (max. ang.)         AngularGrid ... 3 (Lebedev-194)
Angular grid pruning method      GridPruning ... 4 (adaptive)
Weight generation scheme         WeightScheme... mBecke (2022)
Basis function cutoff            BFCut       ... 1.0000e-11
Integration weight cutoff        WCut        ... 1.0000e-14
Partially contracted basis set               ... on
Rotationally invariant grid construction     ... off
Angular grids for H and He will be reduced by one unit

Total number of grid points                  ...    12496
Total number of batches                      ...       99
Average number of points per batch           ...      126
Average number of grid points per atom       ...     4165
UseSFitting                                  ... on
Initializing property integral containers    ... done (  0.0 sec)

SHARK setup successfully completed in   0.2 seconds

Maximum memory used throughout the entire STARTUP-calculation: 9.4 MB
-------------------------------------------------------------------------------
                                 ORCA GUESS
                   Start orbitals & Density for SCF / CASSCF
-------------------------------------------------------------------------------

------------
SCF SETTINGS
------------
Hamiltonian:
 Density Functional     Method          .... DFT(GTOs)
 Exchange Functional    Exchange        .... B88
   X-Alpha parameter    XAlpha          ....  0.666667
   Becke's b parameter  XBeta           ....  0.004200
 Correlation Functional Correlation     .... LYP
 LDA part of GGA corr.  LDAOpt          .... VWN-5
 Gradients option       PostSCFGGA      .... off
 Hybrid DFT is turned on
   Fraction HF Exchange ScalHFX         ....  0.200000
   Scaling of DF-GGA-X  ScalDFX         ....  0.720000
   Scaling of DF-GGA-C  ScalDFC         ....  0.810000
   Scaling of DF-LDA-C  ScalLDAC        ....  1.000000
   Perturbative correction              ....  0.000000
   NL short-range parameter             ....  4.800000
 RI-approximation to the Coulomb term is turned on
   Number of AuxJ basis functions       .... 147
   RIJ-COSX (HFX calculated with COS-X)).... on


General Settings:
 Integral files         IntName         .... job
 Hartree-Fock type      HFTyp           .... RHF
 Total Charge           Charge          ....    0
 Multiplicity           Mult            ....    1
 Number of Electrons    NEL             ....   22
 Basis Dimension        Dim             ....   42
 Nuclear Repulsion      ENuc            ....    110.1165214806 Eh

Convergence Acceleration:
 AO-DIIS                CNVDIIS         .... on
   Start iteration      DIISMaxIt       ....    12
   Startup error        DIISStart       ....  0.200000
   # of expansion vecs  DIISMaxEq       ....     5
   Bias factor          DIISBfac        ....   1.050
   Max. coefficient     DIISMaxC        ....  10.000
 MO-DIIS                CNVKDIIS        .... off
 Trust-Rad. Augm. Hess. CNVTRAH         .... auto
   Auto Start mean grad. ratio tolernc. ....  1.125000
   Auto Start start iteration           ....     1
   Auto Start num. interpolation iter.  ....    10
   Max. Number of Micro iterations      ....    24
   Max. Number of Macro iterations      .... Maxiter - #DIIS iter
   Number of Davidson start vectors     ....     2
   Converg. threshold    (grad. norm)   ....   1.000e-05
   Grad. Scal. Fac. for Micro threshold ....   0.100
   Minimum threshold for Micro iter.    ....   1.000e-02
   NR start threshold (gradient norm)   ....   1.000e-04
   Initial trust radius                 ....   0.400
   Minimum AH scaling param. (alpha)    ....   1.000
   Maximum AH scaling param. (alpha)    .... 1000.000
   Quad. conv. algorithm                .... NR
   White noise on init. David. guess    .... on
   Maximum white noise                  ....   0.010
   Pseudo random numbers                .... off
   Inactive MOs                         .... canonical
   Orbital update algorithm             .... Taylor
   Preconditioner                       .... Diag
   Full preconditioner red. dimension   ....   250
 SOSCF                  CNVSOSCF        .... on
   Start iteration      SOSCFMaxIt      ....   150
   Startup grad/error   SOSCFStart      ....  0.003300
   Hessian update       SOSCFHessUp     .... L-BFGS
 Level Shifting         CNVShift        .... on
   Level shift para.    LevelShift      ....    0.2500
   Turn off err/grad.   ShiftErr        ....    0.0010
 Zerner damping         CNVZerner       .... off
 Static damping         CNVDamp         .... on
   Fraction old density DampFac         ....    0.7000
   Max. Damping (<1)    DampMax         ....    0.9800
   Min. Damping (>=0)   DampMin         ....    0.0000
   Turn off err/grad.   DampErr         ....    0.1000

SCF Procedure:
 Maximum # iterations   MaxIter         ....   125
 SCF integral mode      SCFMode         .... Direct
   Integral package                     .... SHARK and LIBINT hybrid scheme
 Reset frequency        DirectResetFreq ....    20
 Integral Threshold     Thresh          ....  2.500e-11 Eh
 Primitive CutOff       TCut            ....  2.500e-12 Eh

Convergence Tolerance:
 Convergence Check Mode ConvCheckMode   .... Total+1el-Energy
 Convergence forced     ConvForced      .... 0
 Energy Change          TolE            ....  1.000e-08 Eh
 1-El. energy change                    ....  1.000e-05 Eh
 Orbital Gradient       TolG            ....  1.000e-05
 Orbital Rotation angle TolX            ....  1.000e-05
 DIIS Error             TolErr          ....  5.000e-07

---------------------
INITIAL GUESS: MOREAD
---------------------
Guess MOs are being read from file: job.ges
Input Geometry matches current geometry (good)
Input basis set matches current basis set (good)
Occupation numbers will be reassigned to an Aufbau configuration
MOs were renormalized
MOs were reorthogonalized (Cholesky)
                      ------------------
                      INITIAL GUESS DONE (   0.0 sec)
                      ------------------
----------------------
INITIAL GUESS ORBITALS
----------------------
                      0         1         2         3         4         5   
                 -19.25223 -19.16219 -10.74859  -1.28160  -1.18741  -0.97442
                   2.00000   2.00000   2.00000   2.00000   2.00000   2.00000
                  --------  --------  --------  --------  --------  --------
  0C   1s        -0.003165  0.001695  0.971503 -0.068864 -0.369618 -0.000000
  0C   2s         0.027435 -0.027803 -0.095955 -0.145775  0.008922 -0.000000
  0C   3s        -0.001092  0.003670 -0.008287  0.012373  0.053777 -0.000000
  0C   1pz       -0.000000  0.000000 -0.000000 -0.000000 -0.000000 -0.036855
  0C   1px       -0.001861 -0.007070 -0.009675  0.799064 -0.179966 -0.000000
  0C   1py       -0.000000  0.000000 -0.000000 -0.000000 -0.000000  0.516626
  0C   2pz        0.000000 -0.000000 -0.000000 -0.000000 -0.000000 -0.009023
  0C   2px        0.012691  0.013176 -0.000032  0.066868 -0.015383  0.000000
  0C   2py        0.000000 -0.000000 -0.000000 -0.000000 -0.000000  0.126478
  0C   1dz2       0.003845 -0.001927  0.006839  0.029439  0.043326  0.000000
  0C   1dxz      -0.000000 -0.000000  0.000000 -0.000000  0.000000 -0.000631
  0C   1dyz       0.000000 -0.000000  0.000000 -0.000000  0.000000 -0.000000
  0C   1dx2y2    -0.006659  0.003337 -0.011846 -0.050990 -0.075043 -0.000000
  0C   1dxy      -0.000000 -0.000000  0.000000 -0.000000  0.000000  0.008839
  1O   1s         0.001663 -0.986141  0.024865  0.271359  0.141515  0.000000
  1O   2s         0.008025  0.052521  0.054749  0.337447  0.433718  0.000000
  1O   3s        -0.029086 -0.023361  0.029250 -0.172717  0.198225  0.000000
  1O   1pz       -0.000000  0.000000  0.000000  0.000000 -0.000000 -0.023204
  1O   1px       -0.000553 -0.013111 -0.033794 -0.303673 -0.103510  0.000000
  1O   1py        0.000000  0.000000  0.000000  0.000000 -0.000000  0.325273
  1O   2pz       -0.000000 -0.000000  0.000000  0.000000  0.000000  0.002512
  1O   2px        0.007677 -0.003649 -0.014627  0.103581 -0.069236 -0.000000
  1O   2py       -0.000000  0.000000  0.000000  0.000000  0.000000 -0.035218
  1O   1dz2      -0.000879 -0.002544 -0.003425 -0.028096  0.011995  0.000000
  1O   1dxz      -0.000000 -0.000000 -0.000000 -0.000000  0.000000  0.002356
  1O   1dyz      -0.000000 -0.000000 -0.000000  0.000000 -0.000000  0.000000
  1O   1dx2y2     0.001523  0.004407  0.005933  0.048664 -0.020776 -0.000000
  1O   1dxy      -0.000000 -0.000000 -0.000000 -0.000000  0.000000 -0.033033
  2O   1s         0.985731  0.001617  0.034683 -0.193131  0.256523  0.000000
  2O   2s        -0.046271 -0.006719  0.049809  0.027752  0.529558  0.000000
  2O   3s         0.019670  0.025893  0.022555  0.277153  0.112063  0.000000
  2O   1pz       -0.000000 -0.000000  0.000000 -0.000000 -0.000000 -0.028749
  2O   1px       -0.013956 -0.000921  0.035241 -0.208913  0.185636 -0.000000
  2O   1py       -0.000000 -0.000000  0.000000 -0.000000 -0.000000  0.403007
  2O   2pz        0.000000  0.000000  0.000000 -0.000000  0.000000  0.001709
  2O   2px       -0.004360  0.005929  0.009607  0.143002  0.005745  0.000000
  2O   2py       -0.000000  0.000000  0.000000  0.000000  0.000000 -0.023963
  2O   1dz2       0.002803  0.001025 -0.004026  0.031270  0.005160  0.000000
  2O   1dxz      -0.000000 -0.000000  0.000000 -0.000000 -0.000000 -0.003468
  2O   1dyz      -0.000000  0.000000 -0.000000 -0.000000 -0.000000  0.000000
  2O   1dx2y2    -0.004854 -0.001775  0.006973 -0.054161 -0.008937 -0.000000
  2O   1dxy      -0.000000 -0.000000  0.000000 -0.000000 -0.000000  0.048613
                      6         7         8         9        10        11   
                  -0.97442  -0.51867  -0.37162  -0.37162  -0.35502   0.15246
                   2.00000   2.00000   2.00000   2.00000   2.00000   0.00000
                  --------  --------  --------  --------  --------  --------
  0C   1s        -0.000000 -0.018517  0.000000  0.000000 -0.286825 -0.059580
  0C   2s        -0.000000  0.067615  0.000000  0.000000 -0.712147 -0.711804
  0C   3s        -0.000000  0.002952 -0.000000  0.000000 -0.244927 -3.226614
  0C   1pz        0.516626 -0.000000  0.018047 -0.008698 -0.000000  0.000000
  0C   1px       -0.000000 -0.397052  0.000000  0.000000 -0.030126 -0.008345
  0C   1py        0.036855 -0.000000 -0.008698 -0.018047 -0.000000  0.000000
  0C   2pz        0.126478  0.000000  0.013294 -0.006407  0.000000 -0.000000
  0C   2px        0.000000  0.117105 -0.000000 -0.000000  0.004377  0.056504
  0C   2py        0.009023 -0.000000 -0.006407 -0.013294  0.000000 -0.000000
  0C   1dz2       0.000000 -0.012258 -0.000000 -0.000000  0.081254 -0.043460
  0C   1dxz       0.008839  0.000000  0.013041 -0.006285 -0.000000  0.000000
  0C   1dyz      -0.000000 -0.000000 -0.000000  0.000000 -0.000000  0.000000
  0C   1dx2y2    -0.000000  0.021231  0.000000  0.000000 -0.140736  0.075274
  0C   1dxy       0.000631  0.000000 -0.006285 -0.013041  0.000000  0.000000
  1O   1s         0.000000  0.091929  0.000000  0.000000 -0.060231  0.084871
  1O   2s         0.000000  0.270631  0.000000  0.000000  0.138121  0.035768
  1O   3s         0.000000  0.374465 -0.000000 -0.000000  0.054160  1.806393
  1O   1pz        0.325273 -0.000000  0.517640 -0.249473 -0.000000  0.000000
  1O   1px       -0.000000  0.431080 -0.000000 -0.000000 -0.495012  0.035187
  1O   1py        0.023204 -0.000000 -0.249473 -0.517640  0.000000  0.000000
  1O   2pz       -0.035218  0.000000  0.317306 -0.152923 -0.000000  0.000000
  1O   2px       -0.000000  0.074559 -0.000000 -0.000000 -0.394445 -0.250455
  1O   2py       -0.002512 -0.000000 -0.152923 -0.317306  0.000000  0.000000
  1O   1dz2       0.000000  0.025375  0.000000 -0.000000  0.002480 -0.011252
  1O   1dxz      -0.033033  0.000000 -0.051847  0.024987  0.000000 -0.000000
  1O   1dyz       0.000000  0.000000  0.000000 -0.000000  0.000000 -0.000000
  1O   1dx2y2    -0.000000 -0.043950  0.000000  0.000000 -0.004295  0.019490
  1O   1dxy      -0.002356  0.000000  0.024987  0.051847 -0.000000 -0.000000
  2O   1s         0.000000 -0.070861 -0.000000 -0.000000 -0.051067  0.089823
  2O   2s         0.000000 -0.330064 -0.000000 -0.000000  0.143219  0.037803
  2O   3s         0.000000 -0.356835  0.000000 -0.000000  0.079664  2.002991
  2O   1pz        0.403007  0.000000 -0.486658  0.234541  0.000000  0.000000
  2O   1px       -0.000000  0.426764 -0.000000 -0.000000  0.516414 -0.037121
  2O   1py        0.028749  0.000000  0.234541  0.486658  0.000000  0.000000
  2O   2pz       -0.023963 -0.000000 -0.297540  0.143397  0.000000  0.000000
  2O   2px        0.000000  0.068088 -0.000000 -0.000000  0.405846  0.263253
  2O   2py       -0.001709  0.000000  0.143397  0.297540  0.000000  0.000000
  2O   1dz2       0.000000 -0.023876 -0.000000  0.000000  0.004958 -0.009992
  2O   1dxz       0.048613  0.000000 -0.048807  0.023522  0.000000  0.000000
  2O   1dyz       0.000000 -0.000000 -0.000000  0.000000  0.000000 -0.000000
  2O   1dx2y2    -0.000000  0.041355 -0.000000 -0.000000 -0.008587  0.017307
  2O   1dxy       0.003468  0.000000  0.023522  0.048807  0.000000  0.000000
                     12        13        14        15        16        17   
                   0.22582   0.22582   0.31585   0.72987   0.79345   0.79345
                   0.00000   0.00000   0.00000   0.00000   0.00000   0.00000
                  --------  --------  --------  --------  --------  --------
  0C   1s         0.000000  0.000000  0.009827  0.252542  0.000000 -0.000000
  0C   2s         0.000000  0.000000  0.048811 -4.846711 -0.000002  0.000001
  0C   3s        -0.000000 -0.000000  0.113428 -1.679385 -0.000000  0.000000
  0C   1pz        0.209407 -0.100192  0.000000  0.000000  0.402168  0.834204
  0C   1px       -0.000000 -0.000000  0.099651  0.048903  0.000000 -0.000000
  0C   1py       -0.100192 -0.209407  0.000000  0.000000 -0.834204  0.402168
  0C   2pz       -1.528592  0.731368  0.000000  0.000000  0.569517  1.181331
  0C   2px       -0.000000 -0.000000  3.241585 -0.068801 -0.000000  0.000000
  0C   2py        0.731368  1.528592  0.000000  0.000001 -1.181331  0.569517
  0C   1dz2      -0.000000 -0.000000  0.001281  0.050418  0.000000 -0.000000
  0C   1dxz       0.004324 -0.002069  0.000000 -0.000000 -0.104884 -0.217558
  0C   1dyz      -0.000000  0.000000  0.000000  0.000000  0.000000  0.000000
  0C   1dx2y2     0.000000  0.000000 -0.002218 -0.087326 -0.000000  0.000000
  0C   1dxy      -0.002069 -0.004324  0.000000 -0.000000  0.217558 -0.104884
  1O   1s         0.000000  0.000000 -0.066176 -0.013570 -0.000000  0.000000
  1O   2s        -0.000000 -0.000000  0.000254  0.213837  0.000000 -0.000000
  1O   3s         0.000000  0.000000 -2.965031  2.455945  0.000000 -0.000000
  1O   1pz        0.110012 -0.052636 -0.000000 -0.000000 -0.154059 -0.319560
  1O   1px        0.000000  0.000000 -0.143808  0.309323  0.000000 -0.000000
  1O   1py       -0.052636 -0.110012 -0.000000 -0.000000  0.319560 -0.154059
  1O   2pz        0.406125 -0.194314 -0.000000 -0.000000 -0.197162 -0.408967
  1O   2px        0.000000  0.000000  0.027459 -1.623186 -0.000000  0.000000
  1O   2py       -0.194314 -0.406125 -0.000000 -0.000000  0.408967 -0.197162
  1O   1dz2      -0.000000 -0.000000  0.001966 -0.023935 -0.000000  0.000000
  1O   1dxz      -0.025570  0.012234  0.000000 -0.000000 -0.038819 -0.080521
  1O   1dyz       0.000000 -0.000000 -0.000000  0.000000  0.000000  0.000000
  1O   1dx2y2     0.000000  0.000000 -0.003405  0.041456  0.000000 -0.000000
  1O   1dxy       0.012234  0.025570  0.000000 -0.000000  0.080521 -0.038819
  2O   1s         0.000000  0.000000  0.058641 -0.022572  0.000000 -0.000000
  2O   2s        -0.000000 -0.000000  0.001403  0.277470  0.000000 -0.000000
  2O   3s         0.000000  0.000000  2.781248  2.829431  0.000001 -0.000001
  2O   1pz        0.108352 -0.051842  0.000000 -0.000000  0.025469  0.052829
  2O   1px       -0.000000 -0.000000 -0.163320 -0.296452 -0.000000  0.000000
  2O   1py       -0.051842 -0.108352  0.000000 -0.000000 -0.052829  0.025469
  2O   2pz        0.390830 -0.186996  0.000000 -0.000000 -0.819346 -1.699541
  2O   2px       -0.000000 -0.000000 -0.068656  1.831018  0.000001 -0.000001
  2O   2py       -0.186996 -0.390830  0.000000 -0.000000  1.699541 -0.819346
  2O   1dz2      -0.000000 -0.000000 -0.001239 -0.028832 -0.000000  0.000000
  2O   1dxz       0.029281 -0.014010  0.000000  0.000000  0.012509  0.025948
  2O   1dyz       0.000000 -0.000000  0.000000  0.000000  0.000000  0.000000
  2O   1dx2y2     0.000000  0.000000  0.002146  0.049939  0.000000 -0.000000
  2O   1dxy      -0.014010 -0.029281  0.000000  0.000000 -0.025948  0.012509
                     18        19        20        21        22        23   
                   0.81601   0.81601   0.84088   1.22356   1.34076   1.34076
                   0.00000   0.00000   0.00000   0.00000   0.00000   0.00000
                  --------  --------  --------  --------  --------  --------
  0C   1s         0.000000  0.000000 -0.000527 -0.046654 -0.000000 -0.000000
  0C   2s        -0.000001 -0.000000  0.030696  0.249819  0.000000  0.000000
  0C   3s        -0.000000 -0.000000  0.003762  3.223823  0.000000  0.000000
  0C   1pz        0.202814 -0.648715 -0.000000 -0.000000 -0.213905  0.211082
  0C   1px       -0.000000 -0.000000  0.565417  0.039088  0.000000  0.000000
  0C   1py       -0.648715 -0.202814 -0.000000 -0.000000  0.211082  0.213905
  0C   2pz        0.266734 -0.853168 -0.000000  0.000000  1.100570 -1.086043
  0C   2px        0.000000  0.000000 -0.944922 -0.051541 -0.000000 -0.000000
  0C   2py       -0.853168 -0.266734 -0.000000  0.000000 -1.086043 -1.100570
  0C   1dz2       0.000000  0.000000 -0.010235  0.270618 -0.000000 -0.000000
  0C   1dxz       0.108107 -0.345790 -0.000000 -0.000000 -0.007121  0.007027
  0C   1dyz       0.000000 -0.000000  0.000000 -0.000000 -0.000000  0.000000
  0C   1dx2y2    -0.000000 -0.000000  0.017727 -0.468723 -0.000000 -0.000000
  0C   1dxy      -0.345790 -0.108107 -0.000000 -0.000000  0.007027  0.007121
  1O   1s         0.000000  0.000000  0.005401  0.210495  0.000000  0.000000
  1O   2s         0.000000  0.000000  0.033699  2.057012  0.000000  0.000000
  1O   3s         0.000002  0.000001 -2.659462 -3.224476 -0.000000 -0.000000
  1O   1pz        0.055570 -0.177744 -0.000000  0.000000  0.574910 -0.567322
  1O   1px        0.000000  0.000000 -0.112590  0.102002  0.000000  0.000000
  1O   1py       -0.177744 -0.055570 -0.000000  0.000000 -0.567322 -0.574910
  1O   2pz       -0.518040  1.656989  0.000000 -0.000000 -0.864654  0.853241
  1O   2px       -0.000002 -0.000001  2.741113  0.162798  0.000000  0.000000
  1O   2py        1.656989  0.518040  0.000001 -0.000000  0.853241  0.864654
  1O   1dz2      -0.000000 -0.000000  0.007807  0.014758 -0.000000 -0.000000
  1O   1dxz       0.000283 -0.000905 -0.000000 -0.000000  0.083068 -0.081971
  1O   1dyz      -0.000000  0.000000  0.000000 -0.000000 -0.000000  0.000000
  1O   1dx2y2     0.000000  0.000000 -0.013522 -0.025561 -0.000000 -0.000000
  1O   1dxy      -0.000905 -0.000283 -0.000000  0.000000 -0.081971 -0.083068
  2O   1s         0.000000  0.000000 -0.013851  0.214476  0.000000  0.000000
  2O   2s         0.000000  0.000000 -0.078167  2.168461  0.000000  0.000000
  2O   3s        -0.000001 -0.000000  2.665330 -3.513391 -0.000000 -0.000001
  2O   1pz       -0.117230  0.374970  0.000000  0.000000  0.560292 -0.552896
  2O   1px        0.000000  0.000000 -0.125405 -0.134577 -0.000000 -0.000000
  2O   1py        0.374970  0.117230  0.000000  0.000000 -0.552896 -0.560292
  2O   2pz        0.023538 -0.075289 -0.000000 -0.000000 -0.875604  0.864047
  2O   2px       -0.000001 -0.000000  2.731701 -0.168334 -0.000000 -0.000000
  2O   2py       -0.075289 -0.023538 -0.000000 -0.000000  0.864047  0.875604
  2O   1dz2       0.000000  0.000000 -0.008009  0.018044 -0.000000 -0.000000
  2O   1dxz       0.027421 -0.087709 -0.000000 -0.000000 -0.088379  0.087212
  2O   1dyz       0.000000 -0.000000 -0.000000 -0.000000 -0.000000  0.000000
  2O   1dx2y2     0.000000  0.000000  0.013872 -0.031254 -0.000000 -0.000000
  2O   1dxy      -0.087709 -0.027421 -0.000000 -0.000000  0.087212  0.088379
                     24        25        26        27        28        29   
                   1.36423   1.36423   1.59261   2.03022   2.56716   2.56717
                   0.00000   0.00000   0.00000   0.00000   0.00000   0.00000
                  --------  --------  --------  --------  --------  --------
  0C   1s        -0.000000 -0.000000  0.005566 -0.032834  0.000000  0.000000
  0C   2s         0.000000  0.000000 -0.008315  6.737106 -0.000000 -0.000000
  0C   3s         0.000000  0.000000 -0.062389  1.670391 -0.000000 -0.000000
  0C   1pz       -0.000000  0.000000 -0.000000 -0.000000  0.000000 -0.000000
  0C   1px        0.000000 -0.000000 -0.089199  0.033905 -0.000000 -0.000000
  0C   1py       -0.000000 -0.000000 -0.000000 -0.000000 -0.000000 -0.000000
  0C   2pz        0.000001 -0.000000  0.000000  0.000000  0.000000 -0.000000
  0C   2px        0.000000  0.000000 -3.287195  0.056680 -0.000000 -0.000000
  0C   2py        0.000000  0.000001  0.000000  0.000000 -0.000000 -0.000000
  0C   1dz2      -0.000000 -0.741870 -0.000562  0.316469 -0.018412  0.000000
  0C   1dxz      -0.000000  0.000000 -0.000000 -0.000000 -0.000000  0.000000
  0C   1dyz       0.856642 -0.000000  0.000000 -0.000000  0.000000  0.021258
  0C   1dx2y2    -0.000000 -0.428319  0.000973 -0.548141 -0.010630 -0.000000
  0C   1dxy      -0.000000 -0.000000 -0.000000 -0.000000  0.000000  0.000000
  1O   1s         0.000000  0.000000 -0.221002 -0.159303  0.000000 -0.000000
  1O   2s         0.000000  0.000000 -1.612428 -0.504480  0.000000  0.000000
  1O   3s        -0.000000 -0.000000  5.320427 -3.185433  0.000000  0.000000
  1O   1pz        0.000001 -0.000000  0.000000  0.000000  0.000000 -0.000000
  1O   1px        0.000000  0.000000 -0.364891  0.778904 -0.000000 -0.000000
  1O   1py        0.000000  0.000001  0.000000  0.000000 -0.000000 -0.000000
  1O   2pz       -0.000001  0.000000  0.000000 -0.000000  0.000000 -0.000000
  1O   2px        0.000000  0.000000 -0.154441  1.154227 -0.000000 -0.000000
  1O   2py       -0.000000 -0.000001  0.000000 -0.000000 -0.000000 -0.000000
  1O   1dz2      -0.000000 -0.118534  0.013259  0.010116 -0.627522  0.000000
  1O   1dxz       0.000000 -0.000000 -0.000000  0.000000  0.000000 -0.000000
  1O   1dyz       0.136868 -0.000000 -0.000000  0.000000  0.000000  0.724602
  1O   1dx2y2    -0.000000 -0.068436 -0.022965 -0.017521 -0.362300  0.000000
  1O   1dxy       0.000000  0.000000 -0.000000  0.000000 -0.000000 -0.000000
  2O   1s         0.000000  0.000000  0.206975 -0.167485  0.000000  0.000000
  2O   2s         0.000000  0.000000  1.509330 -0.565957  0.000000  0.000000
  2O   3s        -0.000000 -0.000000 -5.165819 -3.616790 -0.000000 -0.000000
  2O   1pz        0.000000 -0.000000  0.000000  0.000000 -0.000000  0.000000
  2O   1px       -0.000000  0.000000 -0.401189 -0.772335  0.000000  0.000000
  2O   1py        0.000000  0.000000 -0.000000  0.000000  0.000000  0.000000
  2O   2pz       -0.000001  0.000000 -0.000000 -0.000000 -0.000000  0.000000
  2O   2px       -0.000000 -0.000000 -0.016103 -1.430133  0.000000  0.000000
  2O   2py       -0.000000 -0.000001 -0.000000 -0.000000  0.000000  0.000000
  2O   1dz2      -0.000000 -0.117894 -0.009780  0.032648  0.622135 -0.000000
  2O   1dxz      -0.000000  0.000000 -0.000000 -0.000000  0.000000 -0.000000
  2O   1dyz       0.136127 -0.000000  0.000000 -0.000000 -0.000000 -0.718378
  2O   1dx2y2    -0.000000 -0.068066  0.016940 -0.056549  0.359190 -0.000000
  2O   1dxy      -0.000000 -0.000000 -0.000000 -0.000000 -0.000000 -0.000000
                     30        31        32        33        34        35   
                   2.96061   2.96061   3.24293   3.35003   3.56454   3.56454
                   0.00000   0.00000   0.00000   0.00000   0.00000   0.00000
                  --------  --------  --------  --------  --------  --------
  0C   1s         0.000000 -0.000000 -0.341558 -0.282855  0.000000  0.000000
  0C   2s         0.000000 -0.000000 -7.896896 -5.060574 -0.000000 -0.000000
  0C   3s         0.000000 -0.000000 -1.082904 -0.626537  0.000000  0.000000
  0C   1pz        0.001942  0.002157  0.000000  0.000000  0.000000 -0.000000
  0C   1px       -0.000000  0.000000  0.122197 -0.062903 -0.000000 -0.000000
  0C   1py       -0.002157  0.001942  0.000000  0.000000 -0.000000 -0.000000
  0C   2pz        0.008124  0.009020 -0.000000 -0.000000  0.000000 -0.000000
  0C   2px        0.000000 -0.000000 -0.084583  0.038991 -0.000000 -0.000000
  0C   2py       -0.009020  0.008124 -0.000000 -0.000000 -0.000000 -0.000000
  0C   1dz2       0.000000 -0.000000  0.593880  0.422788  0.910270  0.000000
  0C   1dxz       0.254988  0.283132 -0.000000  0.000000  0.000000 -0.000000
  0C   1dyz      -0.000000 -0.000000  0.000000 -0.000000  0.000000 -1.051086
  0C   1dx2y2    -0.000000  0.000000 -1.028630 -0.732290  0.525545  0.000000
  0C   1dxy      -0.283132  0.254988 -0.000000  0.000000 -0.000000 -0.000000
  1O   1s         0.000000 -0.000000 -0.012263  0.002312  0.000000  0.000000
  1O   2s         0.000000 -0.000000  1.783975  1.774521  0.000000  0.000000
  1O   3s        -0.000000  0.000000  3.974745 -0.397159  0.000000  0.000000
  1O   1pz       -0.211939 -0.235332  0.000000 -0.000000  0.000000 -0.000000
  1O   1px       -0.000000  0.000000 -0.612292 -0.333307 -0.000000 -0.000000
  1O   1py        0.235332 -0.211939  0.000000 -0.000000 -0.000000 -0.000000
  1O   2pz        0.147808  0.164123  0.000000  0.000000 -0.000000  0.000000
  1O   2px        0.000000 -0.000000 -2.078775  0.489468 -0.000000 -0.000000
  1O   2py       -0.164123  0.147808  0.000000  0.000000  0.000000  0.000000
  1O   1dz2      -0.000000  0.000000 -0.571563  0.208786 -0.786783 -0.000000
  1O   1dxz      -0.459770 -0.510518 -0.000000 -0.000000  0.000000 -0.000000
  1O   1dyz      -0.000000 -0.000000 -0.000000  0.000000 -0.000000  0.908498
  1O   1dx2y2    -0.000000  0.000000  0.989976 -0.361628 -0.454249 -0.000000
  1O   1dxy       0.510518 -0.459770 -0.000000 -0.000000 -0.000000 -0.000000
  2O   1s        -0.000000  0.000000  0.007298 -0.008538  0.000000  0.000000
  2O   2s        -0.000000  0.000000  2.547515  1.189135  0.000000  0.000000
  2O   3s         0.000000 -0.000000  1.394450  3.667412 -0.000000 -0.000000
  2O   1pz        0.221750  0.246226  0.000000  0.000000  0.000000 -0.000000
  2O   1px       -0.000000  0.000000  0.532963  0.414971  0.000000  0.000000
  2O   1py       -0.246226  0.221750  0.000000  0.000000 -0.000000 -0.000000
  2O   2pz       -0.162751 -0.180715  0.000000  0.000000 -0.000000  0.000000
  2O   2px        0.000000 -0.000000  0.417089  2.049831  0.000000  0.000000
  2O   2py        0.180715 -0.162751  0.000000  0.000000  0.000000  0.000000
  2O   1dz2       0.000000 -0.000000 -0.010410 -0.614102 -0.824809 -0.000000
  2O   1dxz      -0.465240 -0.516591  0.000000  0.000000 -0.000000  0.000000
  2O   1dyz       0.000000  0.000000 -0.000000  0.000000 -0.000000  0.952409
  2O   1dx2y2     0.000000 -0.000000  0.018031  1.063655 -0.476203 -0.000000
  2O   1dxy       0.516591 -0.465240  0.000000  0.000000  0.000000  0.000000
                     36        37        38        39        40        41   
                   4.15350   4.15350   4.49409   4.49409   6.37248   7.15181
                   0.00000   0.00000   0.00000   0.00000   0.00000   0.00000
                  --------  --------  --------  --------  --------  --------
  0C   1s         0.000000  0.000000 -0.000000 -0.000000  0.624300  0.080880
  0C   2s        -0.000000 -0.000000  0.000000  0.000000-20.600288 -5.908047
  0C   3s        -0.000000 -0.000000 -0.000000 -0.000000 -0.393226 -0.234731
  0C   1pz       -0.026847  0.102277 -0.869144  2.374185  0.000000  0.000000
  0C   1px       -0.000000 -0.000000 -0.000000 -0.000000 -0.570174  5.686849
  0C   1py        0.102277  0.026847  2.374185  0.869144  0.000000  0.000000
  0C   2pz       -0.005625  0.021431 -0.266083  0.726842 -0.000000 -0.000000
  0C   2px       -0.000000 -0.000000 -0.000000 -0.000000  0.035154  0.063052
  0C   2py        0.021431  0.005625  0.726842  0.266083 -0.000000 -0.000000
  0C   1dz2       0.000000  0.000000 -0.000000 -0.000000  3.149722  0.737950
  0C   1dxz       0.683937 -2.605567  0.016520 -0.045125  0.000000 -0.000000
  0C   1dyz      -0.000000  0.000000  0.000000 -0.000000  0.000000 -0.000000
  0C   1dx2y2    -0.000000 -0.000000  0.000000  0.000000 -5.455479 -1.278167
  0C   1dxy      -2.605567 -0.683937 -0.045125 -0.016520  0.000000 -0.000000
  1O   1s         0.000000  0.000000  0.000000  0.000000 -0.080121 -0.213502
  1O   2s        -0.000000 -0.000000 -0.000000 -0.000000  9.806412 -1.306450
  1O   3s         0.000000  0.000000  0.000000  0.000000  3.620549 -1.137353
  1O   1pz       -0.369832  1.408936  0.161268 -0.440526  0.000000  0.000000
  1O   1px        0.000000  0.000000 -0.000000 -0.000000 -2.105936  1.287144
  1O   1py        1.408936  0.369832 -0.440526 -0.161268  0.000000  0.000000
  1O   2pz       -0.154700  0.589353  0.348370 -0.951622  0.000000  0.000000
  1O   2px       -0.000000 -0.000000 -0.000000 -0.000000 -1.972037  0.712964
  1O   2py        0.589353  0.154700 -0.951622 -0.348370  0.000000  0.000000
  1O   1dz2      -0.000000  0.000000 -0.000000 -0.000000  0.233634  0.362482
  1O   1dxz       0.250811 -0.955506 -0.382884  1.045901 -0.000000  0.000000
  1O   1dyz      -0.000000  0.000000 -0.000000  0.000000 -0.000000  0.000000
  1O   1dx2y2    -0.000000 -0.000000  0.000000  0.000000 -0.404665 -0.627837
  1O   1dxy      -0.955506 -0.250811  1.045901  0.382884 -0.000000  0.000000
  2O   1s        -0.000000 -0.000000  0.000000  0.000000 -0.183811  0.124556
  2O   2s         0.000000  0.000000 -0.000000 -0.000000  9.223624  6.331885
  2O   3s        -0.000000 -0.000000  0.000000  0.000000  3.547184  3.566846
  2O   1pz        0.397167 -1.513070  0.207718 -0.567410  0.000000  0.000000
  2O   1px        0.000000  0.000000  0.000000  0.000000  1.210550  2.141957
  2O   1py       -1.513070 -0.397167 -0.567410 -0.207718  0.000000  0.000000
  2O   2pz        0.169402 -0.645366  0.381555 -1.042270  0.000000  0.000000
  2O   2px        0.000000  0.000000 -0.000000 -0.000000  1.684894  1.812016
  2O   2py       -0.645366 -0.169402 -1.042270 -0.381555  0.000000  0.000000
  2O   1dz2       0.000000  0.000000 -0.000000 -0.000000  0.341760 -0.171760
  2O   1dxz       0.223033 -0.849680  0.415154 -1.134051 -0.000000  0.000000
  2O   1dyz       0.000000 -0.000000 -0.000000  0.000000 -0.000000 -0.000000
  2O   1dx2y2     0.000000  0.000000  0.000000  0.000000 -0.591946  0.297497
  2O   1dxy      -0.849680 -0.223033 -1.134051 -0.415154 -0.000000  0.000000
             **** ENERGY FILE WAS UPDATED (job.en.tmp) ****
Finished Guess after   0.0 sec
Maximum memory used throughout the entire GUESS-calculation: 5.8 MB

-------------------------------------------------------------------------------------------
                                      ORCA LEAN-SCF
                              memory conserving SCF solver
-------------------------------------------------------------------------------------------

----------------------------------------D-I-I-S--------------------------------------------
Iteration    Energy (Eh)           Delta-E    RMSDP     MaxDP     DIISErr   Damp  Time(sec)
-------------------------------------------------------------------------------------------
               ***  Starting incremental Fock matrix formation  ***
                              *** Initializing SOSCF ***
---------------------------------------S-O-S-C-F--------------------------------------
Iteration    Energy (Eh)           Delta-E    RMSDP     MaxDP     MaxGrad    Time(sec)
--------------------------------------------------------------------------------------
    1    -182.7250524291514466     0.00e+00  1.13e-07  7.66e-07  7.02e-08     0.2

                         ----------------------------
                         !        ITERATION     0   !
                         ----------------------------
   Total Energy        :    -182.725052429151 Eh
   Energy Change       :     182.725052429151 Eh
   MAX-DP              :       0.000000766305
   RMS-DP              :       0.000000113359
   Orbital gradient    :       0.000000070217
   Orbital Rotation    :       0.000000070217
   alpha HOMO          :      -0.3550 Eh
   alpha LUMO          :       0.1525 Eh
   Int. Num. El.       :    21.99999285 (UP=   10.99999642 DN=   10.99999642)
   Exchange            :   -18.84552384 Eh
   Correlation         :    -1.00170919 Eh

               *** Restarting incremental Fock matrix formation ***
    2    -182.7250524291502529     1.19e-12  7.72e-08  5.68e-07  2.09e-07     0.2
                  *** Gradient check signals convergence ***

                         ----------------------------
                         !        ITERATION     1   !
                         ----------------------------
   Total Energy        :    -182.725052429150 Eh
   Energy Change       :      -0.000000000001 Eh
   MAX-DP              :       0.000000568344
   RMS-DP              :       0.000000077160
   Orbital gradient    :       0.000000208670
   Orbital Rotation    :       0.000000192342
   alpha HOMO          :      -0.3550 Eh
   alpha LUMO          :       0.1525 Eh
   Int. Num. El.       :    21.99999285 (UP=   10.99999642 DN=   10.99999642)
   Exchange            :   -18.84552194 Eh
   Correlation         :    -1.00170913 Eh


               *****************************************************
               *                     SUCCESS                       *
               *           SCF CONVERGED AFTER   2 CYCLES          *
               *****************************************************

Recomputing exchange energy using gridx3       ... done (    0.221 sec)
Old exchange energy                            :     -4.745839384 Eh
New exchange energy                            :     -4.745838677 Eh
Exchange energy change after final integration :      0.000000708 Eh
Total energy after final integration           :   -182.725051722 Eh
             **** ENERGY FILE WAS UPDATED (job.en.tmp) ****

----------------
TOTAL SCF ENERGY
----------------

Total Energy       :       -182.72505172160740 Eh           -4972.20144 eV

Components:
Nuclear Repulsion  :        110.11652148059876 Eh            2996.42288 eV
Electronic Energy  :       -292.84157390974906 Eh           -7968.62434 eV
One Electron Energy:       -461.11152244994480 Eh          -12547.48243 eV
Two Electron Energy:        168.26994854019577 Eh            4578.85808 eV

Virial components:
Potential Energy   :       -386.69545625951730 Eh          -10522.51832 eV
Kinetic Energy     :        203.97040453790993 Eh            5550.31688 eV
Virial Ratio       :          1.89584100269628

DFT components:
N(Alpha)           :       10.999996423960 electrons
N(Beta)            :       10.999996423960 electrons
N(Total)           :       21.999992847921 electrons
E(X)               :      -18.845521938332 Eh       
E(C)               :       -1.001709134897 Eh       
E(XC)              :      -19.847231073229 Eh       

---------------
SCF CONVERGENCE
---------------

  Last Energy change         ...   -1.1937e-12  Tolerance :   1.0000e-08
  Last MAX-Density change    ...    5.6834e-07  Tolerance :   1.0000e-07
  Last RMS-Density change    ...    7.7160e-08  Tolerance :   5.0000e-09
  Last DIIS Error            ...    6.8718e-07  Tolerance :   5.0000e-07
  Last Orbital Gradient      ...    2.0867e-07  Tolerance :   1.0000e-05
  Last Orbital Rotation      ...    1.9234e-07  Tolerance :   1.0000e-05


----------------
ORBITAL ENERGIES
----------------

  NO   OCC          E(Eh)            E(eV) 
   0   2.0000     -19.252230      -523.8798 
   1   2.0000     -19.162192      -521.4298 
   2   2.0000     -10.748589      -292.4840 
   3   2.0000      -1.281600       -34.8741 
   4   2.0000      -1.187407       -32.3110 
   5   2.0000      -0.974423       -26.5154 
   6   2.0000      -0.974423       -26.5154 
   7   2.0000      -0.518669       -14.1137 
   8   2.0000      -0.371617       -10.1122 
   9   2.0000      -0.371617       -10.1122 
  10   2.0000      -0.355018        -9.6605 
  11   0.0000       0.152460         4.1487 
  12   0.0000       0.225824         6.1450 
  13   0.0000       0.225824         6.1450 
  14   0.0000       0.315847         8.5946 
  15   0.0000       0.729873        19.8609 
  16   0.0000       0.793455        21.5910 
  17   0.0000       0.793455        21.5910 
  18   0.0000       0.816011        22.2048 
  19   0.0000       0.816011        22.2048 
  20   0.0000       0.840876        22.8814 
  21   0.0000       1.223555        33.2946 
  22   0.0000       1.340758        36.4839 
  23   0.0000       1.340758        36.4839 
  24   0.0000       1.364228        37.1225 
  25   0.0000       1.364228        37.1225 
  26   0.0000       1.592605        43.3370 
  27   0.0000       2.030216        55.2450 
  28   0.0000       2.567160        69.8560 
  29   0.0000       2.567171        69.8563 
  30   0.0000       2.960611        80.5623 
  31   0.0000       2.960611        80.5623 
  32   0.0000       3.242926        88.2445 
  33   0.0000       3.350027        91.1589 
  34   0.0000       3.564537        96.9960 
  35   0.0000       3.564541        96.9961 
  36   0.0000       4.153503       113.0226 
  37   0.0000       4.153503       113.0226 
  38   0.0000       4.494091       122.2904 
  39   0.0000       4.494091       122.2904 
  40   0.0000       6.372477       173.4039 
  41   0.0000       7.151814       194.6107 
------------------
MOLECULAR ORBITALS (RHF, ROHF)
------------------
                      0         1         2         3         4         5   
                 -19.25223 -19.16219 -10.74859  -1.28160  -1.18741  -0.97442
                   2.00000   2.00000   2.00000   2.00000   2.00000   2.00000
                  --------  --------  --------  --------  --------  --------
  0C   1s        -0.003165  0.001695  0.971503  0.068865  0.369618 -0.000000
  0C   2s         0.027435 -0.027803 -0.095955  0.145775 -0.008922 -0.000000
  0C   3s        -0.001092  0.003670 -0.008287 -0.012373 -0.053777 -0.000000
  0C   1pz       -0.000000  0.000000 -0.000000  0.000000  0.000000 -0.036277
  0C   1px       -0.001861 -0.007070 -0.009675 -0.799064  0.179966 -0.000000
  0C   1py       -0.000000  0.000000 -0.000000  0.000000  0.000000  0.516667
  0C   2pz        0.000000 -0.000000 -0.000000  0.000000  0.000000 -0.008881
  0C   2px        0.012691  0.013176 -0.000032 -0.066868  0.015383  0.000000
  0C   2py        0.000000 -0.000000 -0.000000  0.000000  0.000000  0.126488
  0C   1dz2       0.003845 -0.001927  0.006839 -0.029439 -0.043326  0.000000
  0C   1dxz      -0.000000 -0.000000  0.000000  0.000000 -0.000000 -0.000621
  0C   1dyz       0.000000 -0.000000  0.000000  0.000000 -0.000000 -0.000000
  0C   1dx2y2    -0.006659  0.003337 -0.011846  0.050990  0.075043 -0.000000
  0C   1dxy      -0.000000 -0.000000  0.000000  0.000000 -0.000000  0.008840
  1O   1s         0.001663 -0.986141  0.024865 -0.271359 -0.141515  0.000000
  1O   2s         0.008025  0.052521  0.054749 -0.337447 -0.433718  0.000000
  1O   3s        -0.029086 -0.023361  0.029250  0.172717 -0.198225  0.000000
  1O   1pz       -0.000000  0.000000  0.000000 -0.000000  0.000000 -0.022841
  1O   1px       -0.000553 -0.013111 -0.033794  0.303673  0.103510  0.000000
  1O   1py        0.000000  0.000000  0.000000 -0.000000  0.000000  0.325299
  1O   2pz       -0.000000 -0.000000  0.000000 -0.000000 -0.000000  0.002473
  1O   2px        0.007677 -0.003649 -0.014627 -0.103580  0.069236 -0.000000
  1O   2py       -0.000000  0.000000  0.000000 -0.000000 -0.000000 -0.035221
  1O   1dz2      -0.000879 -0.002544 -0.003425  0.028096 -0.011995  0.000000
  1O   1dxz      -0.000000 -0.000000 -0.000000  0.000000 -0.000000  0.002320
  1O   1dyz      -0.000000 -0.000000 -0.000000 -0.000000  0.000000  0.000000
  1O   1dx2y2     0.001523  0.004407  0.005933 -0.048664  0.020776 -0.000000
  1O   1dxy      -0.000000 -0.000000 -0.000000  0.000000 -0.000000 -0.033035
  2O   1s         0.985731  0.001617  0.034683  0.193131 -0.256523  0.000000
  2O   2s        -0.046271 -0.006719  0.049809 -0.027752 -0.529558  0.000000
  2O   3s         0.019670  0.025893  0.022555 -0.277153 -0.112063  0.000000
  2O   1pz       -0.000000 -0.000000  0.000000  0.000000  0.000000 -0.028299
  2O   1px       -0.013956 -0.000921  0.035241  0.208913 -0.185636 -0.000000
  2O   1py       -0.000000 -0.000000  0.000000  0.000000  0.000000  0.403039
  2O   2pz        0.000000  0.000000  0.000000  0.000000 -0.000000  0.001683
  2O   2px       -0.004360  0.005929  0.009607 -0.143002 -0.005745  0.000000
  2O   2py       -0.000000  0.000000  0.000000 -0.000000 -0.000000 -0.023965
  2O   1dz2       0.002803  0.001025 -0.004026 -0.031270 -0.005160  0.000000
  2O   1dxz      -0.000000 -0.000000  0.000000  0.000000  0.000000 -0.003414
  2O   1dyz      -0.000000  0.000000 -0.000000  0.000000  0.000000  0.000000
  2O   1dx2y2    -0.004854 -0.001775  0.006973  0.054161  0.008937 -0.000000
  2O   1dxy      -0.000000 -0.000000  0.000000  0.000000  0.000000  0.048617
                      6         7         8         9        10        11   
                  -0.97442  -0.51867  -0.37162  -0.37162  -0.35502   0.15246
                   2.00000   2.00000   2.00000   2.00000   2.00000   0.00000
                  --------  --------  --------  --------  --------  --------
  0C   1s         0.000000  0.018517  0.000000  0.000000  0.286825  0.059580
  0C   2s         0.000000 -0.067615  0.000000  0.000000  0.712147  0.711804
  0C   3s         0.000000 -0.002952 -0.000000  0.000000  0.244927  3.226614
  0C   1pz       -0.516667  0.000000  0.018039 -0.008715  0.000000 -0.000000
  0C   1px        0.000000  0.397053  0.000000  0.000000  0.030126  0.008345
  0C   1py       -0.036277  0.000000 -0.008715 -0.018039  0.000000 -0.000000
  0C   2pz       -0.126488 -0.000000  0.013288 -0.006419 -0.000000  0.000000
  0C   2px       -0.000000 -0.117106 -0.000000 -0.000000 -0.004377 -0.056504
  0C   2py       -0.008881  0.000000 -0.006419 -0.013288 -0.000000  0.000000
  0C   1dz2      -0.000000  0.012258 -0.000000 -0.000000 -0.081254  0.043460
  0C   1dxz      -0.008840 -0.000000  0.013035 -0.006297  0.000000 -0.000000
  0C   1dyz       0.000000  0.000000 -0.000000  0.000000  0.000000 -0.000000
  0C   1dx2y2     0.000000 -0.021231  0.000000  0.000000  0.140736 -0.075274
  0C   1dxy      -0.000621 -0.000000 -0.006297 -0.013035 -0.000000 -0.000000
  1O   1s        -0.000000 -0.091929  0.000000  0.000000  0.060231 -0.084871
  1O   2s        -0.000000 -0.270631  0.000000  0.000000 -0.138121 -0.035768
  1O   3s        -0.000000 -0.374465 -0.000000  0.000000 -0.054160 -1.806393
  1O   1pz       -0.325299  0.000000  0.517405 -0.249961  0.000000 -0.000000
  1O   1px        0.000000 -0.431080 -0.000000 -0.000000  0.495012 -0.035187
  1O   1py       -0.022841  0.000000 -0.249961 -0.517405 -0.000000 -0.000000
  1O   2pz        0.035221 -0.000000  0.317162 -0.153222  0.000000 -0.000000
  1O   2px        0.000000 -0.074559 -0.000000 -0.000000  0.394445  0.250455
  1O   2py        0.002473  0.000000 -0.153222 -0.317162 -0.000000 -0.000000
  1O   1dz2      -0.000000 -0.025375  0.000000 -0.000000 -0.002480  0.011252
  1O   1dxz       0.033035 -0.000000 -0.051823  0.025036 -0.000000  0.000000
  1O   1dyz      -0.000000 -0.000000  0.000000 -0.000000 -0.000000  0.000000
  1O   1dx2y2     0.000000  0.043950  0.000000  0.000000  0.004295 -0.019490
  1O   1dxy       0.002320 -0.000000  0.025036  0.051823  0.000000  0.000000
  2O   1s        -0.000000  0.070861 -0.000000 -0.000000  0.051067 -0.089823
  2O   2s        -0.000000  0.330064 -0.000000 -0.000000 -0.143219 -0.037803
  2O   3s        -0.000000  0.356835  0.000000 -0.000000 -0.079664 -2.002991
  2O   1pz       -0.403039 -0.000000 -0.486437  0.235000 -0.000000 -0.000000
  2O   1px        0.000000 -0.426764 -0.000000 -0.000000 -0.516414  0.037121
  2O   1py       -0.028299 -0.000000  0.235000  0.486437 -0.000000 -0.000000
  2O   2pz        0.023965  0.000000 -0.297405  0.143678 -0.000000 -0.000000
  2O   2px       -0.000000 -0.068088 -0.000000 -0.000000 -0.405846 -0.263253
  2O   2py        0.001683 -0.000000  0.143678  0.297405 -0.000000 -0.000000
  2O   1dz2      -0.000000  0.023876 -0.000000  0.000000 -0.004958  0.009992
  2O   1dxz      -0.048617 -0.000000 -0.048784  0.023568 -0.000000 -0.000000
  2O   1dyz      -0.000000  0.000000 -0.000000  0.000000 -0.000000  0.000000
  2O   1dx2y2     0.000000 -0.041355 -0.000000 -0.000000  0.008587 -0.017307
  2O   1dxy      -0.003414 -0.000000  0.023568  0.048784 -0.000000 -0.000000
                     12        13        14        15        16        17   
                   0.22582   0.22582   0.31585   0.72987   0.79345   0.79345
                   0.00000   0.00000   0.00000   0.00000   0.00000   0.00000
                  --------  --------  --------  --------  --------  --------
  0C   1s         0.000000 -0.000000 -0.009827  0.252542 -0.000000 -0.000000
  0C   2s         0.000000 -0.000000 -0.048811 -4.846711  0.000002  0.000001
  0C   3s        -0.000000  0.000000 -0.113428 -1.679385  0.000000  0.000000
  0C   1pz        0.209626  0.099733 -0.000000  0.000000 -0.401054  0.834739
  0C   1px       -0.000000  0.000000 -0.099651  0.048903 -0.000000 -0.000000
  0C   1py       -0.099733  0.209626 -0.000000  0.000000  0.834739  0.401054
  0C   2pz       -1.530191 -0.728017 -0.000000  0.000000 -0.567940  1.182089
  0C   2px       -0.000000  0.000000 -3.241585 -0.068801  0.000000  0.000000
  0C   2py        0.728017 -1.530191 -0.000000  0.000001  1.182089  0.567940
  0C   1dz2      -0.000000  0.000000 -0.001281  0.050418 -0.000000 -0.000000
  0C   1dxz       0.004329  0.002060 -0.000000 -0.000000  0.104594 -0.217698
  0C   1dyz      -0.000000 -0.000000 -0.000000  0.000000 -0.000000  0.000000
  0C   1dx2y2     0.000000 -0.000000  0.002218 -0.087326  0.000000  0.000000
  0C   1dxy      -0.002060  0.004329 -0.000000 -0.000000 -0.217698 -0.104594
  1O   1s         0.000000 -0.000000  0.066176 -0.013570  0.000000  0.000000
  1O   2s        -0.000000  0.000000 -0.000254  0.213837 -0.000000 -0.000000
  1O   3s         0.000000 -0.000000  2.965032  2.455945 -0.000000 -0.000000
  1O   1pz        0.110127  0.052395  0.000000 -0.000000  0.153633 -0.319765
  1O   1px        0.000000 -0.000000  0.143808  0.309323 -0.000000 -0.000000
  1O   1py       -0.052395  0.110127  0.000000 -0.000000 -0.319765 -0.153633
  1O   2pz        0.406550  0.193424  0.000000 -0.000000  0.196615 -0.409228
  1O   2px        0.000000 -0.000000 -0.027459 -1.623186  0.000000  0.000000
  1O   2py       -0.193424  0.406550  0.000000 -0.000000 -0.409228 -0.196615
  1O   1dz2      -0.000000  0.000000 -0.001966 -0.023935  0.000000  0.000000
  1O   1dxz      -0.025597 -0.012178 -0.000000 -0.000000  0.038712 -0.080573
  1O   1dyz       0.000000  0.000000  0.000000  0.000000 -0.000000  0.000000
  1O   1dx2y2     0.000000 -0.000000  0.003405  0.041456 -0.000000 -0.000000
  1O   1dxy       0.012178 -0.025597 -0.000000 -0.000000 -0.080573 -0.038712
  2O   1s         0.000000 -0.000000 -0.058641 -0.022572 -0.000000 -0.000000
  2O   2s        -0.000000  0.000000 -0.001403  0.277470 -0.000000 -0.000000
  2O   3s         0.000000 -0.000000 -2.781248  2.829431 -0.000001 -0.000001
  2O   1pz        0.108466  0.051605 -0.000000 -0.000000 -0.025399  0.052864
  2O   1px       -0.000000  0.000000  0.163320 -0.296452  0.000000  0.000000
  2O   1py       -0.051605  0.108466 -0.000000 -0.000000  0.052864  0.025399
  2O   2pz        0.391239  0.186139 -0.000000 -0.000000  0.817077 -1.700634
  2O   2px       -0.000000  0.000000  0.068656  1.831018 -0.000001 -0.000001
  2O   2py       -0.186139  0.391239 -0.000000 -0.000000 -1.700634 -0.817077
  2O   1dz2      -0.000000  0.000000  0.001239 -0.028832  0.000000  0.000000
  2O   1dxz       0.029312  0.013946 -0.000000  0.000000 -0.012475  0.025964
  2O   1dyz       0.000000  0.000000 -0.000000  0.000000 -0.000000  0.000000
  2O   1dx2y2     0.000000 -0.000000 -0.002146  0.049939 -0.000000 -0.000000
  2O   1dxy      -0.013946  0.029312 -0.000000  0.000000  0.025964  0.012475
                     18        19        20        21        22        23   
                   0.81601   0.81601   0.84088   1.22356   1.34076   1.34076
                   0.00000   0.00000   0.00000   0.00000   0.00000   0.00000
                  --------  --------  --------  --------  --------  --------
  0C   1s         0.000000  0.000000 -0.000527  0.046654  0.000000  0.000000
  0C   2s        -0.000001 -0.000000  0.030696 -0.249819 -0.000000 -0.000000
  0C   3s        -0.000000 -0.000000  0.003762 -3.223823 -0.000000 -0.000000
  0C   1pz        0.202699 -0.648752 -0.000000  0.000000  0.215638 -0.209311
  0C   1px       -0.000000 -0.000000  0.565417 -0.039088 -0.000000 -0.000000
  0C   1py       -0.648752 -0.202699 -0.000000  0.000000 -0.209311 -0.215638
  0C   2pz        0.266583 -0.853217 -0.000000 -0.000000 -1.109487  1.076932
  0C   2px        0.000000  0.000000 -0.944922  0.051541  0.000000  0.000000
  0C   2py       -0.853217 -0.266583 -0.000000 -0.000000  1.076932  1.109487
  0C   1dz2       0.000000  0.000000 -0.010235 -0.270618  0.000000  0.000000
  0C   1dxz       0.108046 -0.345809 -0.000000  0.000000  0.007178 -0.006968
  0C   1dyz       0.000000 -0.000000  0.000000  0.000000  0.000000 -0.000000
  0C   1dx2y2    -0.000000 -0.000000  0.017727  0.468723  0.000000  0.000000
  0C   1dxy      -0.345809 -0.108046 -0.000000  0.000000 -0.006968 -0.007178
  1O   1s         0.000000  0.000000  0.005401 -0.210495 -0.000000 -0.000000
  1O   2s         0.000000  0.000000  0.033699 -2.057012 -0.000000 -0.000000
  1O   3s         0.000002  0.000001 -2.659462  3.224476  0.000000  0.000000
  1O   1pz        0.055538 -0.177753 -0.000000 -0.000000 -0.579568  0.562563
  1O   1px        0.000000  0.000000 -0.112590 -0.102002 -0.000000 -0.000000
  1O   1py       -0.177753 -0.055538 -0.000000 -0.000000  0.562563  0.579568
  1O   2pz       -0.517746  1.657082  0.000000  0.000000  0.871659 -0.846083
  1O   2px       -0.000002 -0.000001  2.741113 -0.162798 -0.000000 -0.000000
  1O   2py        1.657082  0.517746  0.000001  0.000000 -0.846083 -0.871659
  1O   1dz2      -0.000000 -0.000000  0.007807 -0.014758  0.000000  0.000000
  1O   1dxz       0.000283 -0.000905 -0.000000  0.000000 -0.083741  0.081284
  1O   1dyz      -0.000000  0.000000  0.000000  0.000000  0.000000 -0.000000
  1O   1dx2y2     0.000000  0.000000 -0.013522  0.025561  0.000000  0.000000
  1O   1dxy      -0.000905 -0.000283 -0.000000 -0.000000  0.081284  0.083741
  2O   1s         0.000000  0.000000 -0.013851 -0.214476 -0.000000 -0.000000
  2O   2s         0.000000  0.000000 -0.078167 -2.168461 -0.000000 -0.000000
  2O   3s        -0.000001 -0.000000  2.665330  3.513391  0.000000  0.000001
  2O   1pz       -0.117164  0.374991  0.000000 -0.000000 -0.564831  0.548258
  2O   1px        0.000000  0.000000 -0.125405  0.134577  0.000000  0.000000
  2O   1py        0.374991  0.117164  0.000000 -0.000000  0.548258  0.564831
  2O   2pz        0.023524 -0.075291 -0.000000  0.000000  0.882698 -0.856798
  2O   2px       -0.000001 -0.000000  2.731701  0.168334  0.000000  0.000000
  2O   2py       -0.075291 -0.023524 -0.000000  0.000000 -0.856798 -0.882698
  2O   1dz2       0.000000  0.000000 -0.008009 -0.018044  0.000000  0.000000
  2O   1dxz       0.027406 -0.087714 -0.000000  0.000000  0.089095 -0.086481
  2O   1dyz       0.000000 -0.000000 -0.000000  0.000000  0.000000 -0.000000
  2O   1dx2y2     0.000000  0.000000  0.013872  0.031254  0.000000  0.000000
  2O   1dxy      -0.087714 -0.027406 -0.000000  0.000000 -0.086481 -0.089095
                     24        25        26        27        28        29   
                   1.36423   1.36423   1.59261   2.03022   2.56716   2.56717
                   0.00000   0.00000   0.00000   0.00000   0.00000   0.00000
                  --------  --------  --------  --------  --------  --------
  0C   1s         0.000000  0.000000 -0.005566  0.032834  0.000000  0.000000
  0C   2s        -0.000000 -0.000000  0.008315 -6.737106 -0.000000 -0.000000
  0C   3s        -0.000000 -0.000000  0.062389 -1.670390 -0.000000 -0.000000
[...]

------------------------------------------------------------------------------
                            ORCA SCF RESPONSE CALCULATION
------------------------------------------------------------------------------

GBWName                                 ... job.gbw
Number of atoms                         ...      3
Number of basis functions               ...     42
Max core memory                         ...   1024 MB

Electric field perturbation             ... YES
Quadrupolar field perturbation          ...  NO
Magnetic field perturbation (no GIAO)   ...  NO
Magnetic field perturbation (with GIAO) ...  NO
Linear momentum (velocity) perturbation ...  NO
Spin-orbit coupling perturbation        ...  NO
Choice of electric origin               ... Center of mass
Position of electric origin             ...    -0.001025    -0.000000    -0.000000
Choice of magnetic origin               ... GIAO
Position of magnetic origin             ...     0.000000     0.000000     0.000000
Nuclear geometric perturbations         ... YES (   9 perturbations)
Nucleus-orbit perturbations             ...  NO (   0 perturbations)
Spin-dipole/Fermi contact perturbations ...  NO (   0 perturbations)

Total number of real perturbations      ...     12
Total number of imaginary perturbations ...      0
Total number of triplet perturbations   ...      0
Total number of SOC perturbations       ...      0


                                **********************
                                * REAL PERTURBATIONS *
                                **********************



-------------------
SHARK CP-SCF DRIVER
-------------------

Dimension of the orbital basis          ...     42
Dimension of the CPSCF-problem          ...    341
Number of operators                     ...      1
Max. number of iterations               ...    128
Convergence Tolerance                   ... 1.0e-04
Number of perturbations                 ...     12
Perturbation type                       ... REAL

----------------------------
POPLE LINEAR EQUATION SOLVER
----------------------------

  ITERATION   0:   ||err||_max =   7.3854e-01 (   0.1 sec   0/ 12 done)
  ITERATION   1:   ||err||_max =   6.6828e-02 (   0.1 sec   0/ 12 done)
  ITERATION   2:   ||err||_max =   9.4312e-03 (   0.1 sec   0/ 12 done)
  ITERATION   3:   ||err||_max =   1.6751e-03 (   0.1 sec   6/ 12 done)
  ITERATION   4:   ||err||_max =   2.8867e-04 (   0.1 sec   8/ 12 done)
  ITERATION   5:   ||err||_max =   3.6103e-05 (   0.1 sec  12/ 12 done)

CP-SCF equations solved in   0.6 sec
Response densities calculated in   0.0 sec

Maximum memory used throughout the entire SCFRESP-calculation: 7.1 MB

------------------------------------------------------------------------------
                              ORCA PROPERTY CALCULATIONS
------------------------------------------------------------------------------

GBWName                                 ... job.gbw
Number of atoms                         ...      3
Number of basis functions               ...     42
Max core memory                         ...   1024 MB

Electric properties:
Dipole moment                           ... YES
Quadrupole moment                       ...  NO
Static polarizability (Dipole/Dipole)   ... YES
Static polarizability (Dipole/Quad.)    ...  NO
Static polarizability (Quad./Quad.)     ...  NO
Static polarizability (Velocity)        ...  NO

Atomic electric properties:
Dipole moment                           ...  NO
Quadrupole moment                       ...  NO
Static polarizability                   ...  NO

Choice of electric origin               ... Center of mass
Position of electric origin             ...    -0.001025    -0.000000    -0.000000

General magnetic properties:
Magnetizability                         ...  NO

EPR properties:
g-Tensor (aka g-matrix)                 ...  NO
Zero-Field splitting spin-orbit         ...  NO
Zero-field splitting spin-spin          ...  NO
Hyperfine couplings                     ...  NO (   0 nuclei)
Quadrupole couplings                    ...  NO (   0 nuclei)
Contact density                         ...  NO (   0 nuclei)

NMR properties:
Chemical shifts                         ...  NO (   0 nuclei)
Spin-rotation constants                 ...  NO (   0 nuclei)
Spin-spin couplings                     ...  NO (   0 nuclei,    0 pairs)

Choice of magnetic origin               ... GIAO
Position of magnetic origin             ...     0.000000     0.000000     0.000000

Properties with geometric perturbations:
SCF Hessian                             ... YES
IR spectrum                             ... YES
VCD spectrum                            ...  NO
X-ray spectroscopy properties:
SCF XES/XAS/RIXS spectra                ...  NO


-------------
DIPOLE MOMENT
-------------

Method             : SCF
Type of density    : Electron Density
Multiplicity       :   1
Irrep              :   0
Energy             :  -182.7250517216074002 Eh
Relativity type    : 
Basis              : AO
                                X                 Y                 Z
Electronic contribution:     -0.127524790       0.000000067       0.000000007
Nuclear contribution   :      0.000159295      -0.000000000      -0.000000000
                        -----------------------------------------
Total Dipole Moment    :     -0.127365495       0.000000067       0.000000007
                        -----------------------------------------
Magnitude (a.u.)       :      0.127365495
Magnitude (Debye)      :      0.323737360



--------------------
Rotational spectrum 
--------------------
 
Rotational constants in cm-1:             0.000000             1.389841             1.389841 
Rotational constants in MHz :             0.000000         41666.399551         41666.399551 

Dipole components along the rotational axes: 
x,y,z [a.u.] :     0.127365     0.000000    -0.000000 
x,y,z [Debye]:     0.323737     0.000000    -0.000000 

 

Dipole moment calculation done in   0.0 sec 


---------------------------------------------------
STATIC POLARIZABILITY TENSOR (Dipole/Dipole)
---------------------------------------------------

Method             : SCF
Type of density    : Electron Density
Type of derivative : Electric Field (Direction=X)
Multiplicity       :   1
Irrep              :   0
Relativity type    : 
Basis              : AO

The raw cartesian tensor (atomic units):
       8.397217736         0.000000014         0.000000011  
       0.000000014         4.171696016         0.000000009  
       0.000000011         0.000000009         4.171695998  
diagonalized tensor: 
       4.171695995         4.171696019         8.397217736  

Orientation: 
      -0.000000001         0.000000004         1.000000000  
      -0.371339866        -0.928497013         0.000000003  
       0.928497013        -0.371339866         0.000000003  

Isotropic polarizability :   5.58020


Polarizability tensor calculation done in   0.0 sec 

-----------
SCF HESSIAN
-----------

Occupied/Occupied contributions to the Hessian:
   => Occupied/Occupied contributions              ... done (  0.0 sec)
Perturbed density contributions to the Hessian:
   => Perturbed density contributions              ... done (  0.0 sec)
Explicit contributions to the Hessian:
   => Nuclear repulsion Hessian                    ... done (  0.0 sec)
   => HCore and overlap Hessian                    ... done (  0.0 sec)
   => RI-J Hessian                                 ... done (  0.2 sec)
   => COSX Hessian                                 ... done ( 10.8 sec)
   => XC-Hessian                                   ... done (  0.7 sec)
   => Explicit contributions done
E-field response densities           ... done
Dipole derivatives                                 ... done (  0.0 sec)
Mass weighting the Hessian           ... done
Calculating normal modes             ... done
Scaling frequencies                  ... done

-----------------------
VIBRATIONAL FREQUENCIES
-----------------------

Scaling factor for frequencies =  1.000000000  (already applied!)

     0:       0.00 cm**-1
     1:       0.00 cm**-1
     2:       0.00 cm**-1
     3:       0.00 cm**-1
     4:       0.00 cm**-1
     5:   -6585.34 cm**-1  ***imaginary mode***
     6:   -6585.34 cm**-1  ***imaginary mode***
     7:    7329.86 cm**-1
     8:   14131.68 cm**-1


------------
NORMAL MODES
------------

These modes are the Cartesian displacements weighted by the diagonal matrix
M(i,i)=1/sqrt(m[i]) where m[i] is the mass of the displaced atom
Thus, these vectors are normalized but *not* orthogonal

                  0          1          2          3          4          5    
      0       0.000000   0.000000   0.000000   0.000000   0.000000  -0.000000
      1       0.000000   0.000000   0.000000   0.000000   0.000000   0.839924
      2       0.000000   0.000000   0.000000   0.000000   0.000000   0.272955
      3       0.000000   0.000000   0.000000   0.000000   0.000000  -0.000000
      4       0.000000   0.000000   0.000000   0.000000   0.000000  -0.305174
      5       0.000000   0.000000   0.000000   0.000000   0.000000  -0.099174
      6       0.000000   0.000000   0.000000   0.000000   0.000000   0.000000
      7       0.000000   0.000000   0.000000   0.000000   0.000000  -0.325386
      8       0.000000   0.000000   0.000000   0.000000   0.000000  -0.105743
                  6          7          8    
      0       0.000000  -0.081017   0.880841
      1      -0.272955   0.000000   0.000000
      2       0.839924   0.000000   0.000000
      3       0.000000   0.734537  -0.278315
      4       0.099174  -0.000000   0.000000
      5      -0.305174  -0.000000   0.000000
      6      -0.000000  -0.673715  -0.382962
      7       0.105743  -0.000000  -0.000000
      8      -0.325386  -0.000000  -0.000000


-----------
IR SPECTRUM
-----------

 Mode   freq       eps      Int      T**2         TX        TY        TZ
       cm**-1   L/(mol*cm) km/mol    a.u.
----------------------------------------------------------------------------
  7:   7329.86   0.002259   11.42  0.000096  (-0.009807  0.000000  0.000000)
  8:  14131.68   0.251677  1271.87  0.005558  ( 0.074550  0.000000  0.000000)

* The epsilon (eps) is given for a Dirac delta lineshape.
** The dipole moment derivative (T) already includes vibrational overlap.

The first frequency considered to be a vibration is 7
The total number of vibrations considered is 2


--------------------------
THERMOCHEMISTRY AT 298.15K
--------------------------

Temperature         ...   298.15 K
Pressure            ...     1.00 atm
Total Mass          ...    44.01 AMU
Quasi RRHO          ...     True
Cut-Off Frequency   ...     1.00 cm^-1
The molecule is recognized as being linear

Throughout the following assumptions are being made:
  (1) The electronic state is orbitally nondegenerate
  (2) There are no thermally accessible electronically excited states
  (3) Hindered rotations indicated by low frequency modes are not
      treated as such but are treated as vibrations and this may
      cause some error
  (4) All equations used are the standard statistical mechanics
      equations for an ideal gas
  (5) All vibrations are strictly harmonic

freq.    7329.86  E(vib)   ...       0.00 
freq.   14131.68  E(vib)   ...       0.00 

------------
INNER ENERGY
------------

The inner energy is: U= E(el) + E(ZPE) + E(vib) + E(rot) + E(trans)
    E(el)   - is the total energy from the electronic structure calculation
              = E(kin-el) + E(nuc-el) + E(el-el) + E(nuc-nuc)
    E(ZPE)  - the the zero temperature vibrational energy from the frequency calculation
    E(vib)  - the the finite temperature correction to E(ZPE) due to population
              of excited vibrational states
    E(rot)  - is the rotational thermal energy
    E(trans)- is the translational thermal energy

Summary of contributions to the inner energy U:
Electronic energy                ...   -182.72505172 Eh
Zero point energy                ...      0.04889298 Eh      30.68 kcal/mol
Thermal vibrational correction   ...      0.00000000 Eh       0.00 kcal/mol
Thermal rotational correction    ...      0.00094418 Eh       0.59 kcal/mol
Thermal translational correction ...      0.00141627 Eh       0.89 kcal/mol
-----------------------------------------------------------------------
Total thermal energy                   -182.67379829 Eh


Summary of corrections to the electronic energy:
(perhaps to be used in another calculation)
Total thermal correction                  0.00236045 Eh       1.48 kcal/mol
Non-thermal (ZPE) correction              0.04889298 Eh      30.68 kcal/mol
-----------------------------------------------------------------------
Total correction                          0.05125343 Eh      32.16 kcal/mol


--------
ENTHALPY
--------

The enthalpy is H = U + kB*T
                kB is Boltzmann's constant
Total thermal energy              ...   -182.67379829 Eh 
Thermal Enthalpy correction       ...      0.00094421 Eh       0.59 kcal/mol
-----------------------------------------------------------------------
Total Enthalpy                    ...   -182.67285408 Eh


Note: Rotational entropy computed according to Herzberg 
Infrared and Raman Spectra, Chapter V,1, Van Nostrand Reinhold, 1945 
Point Group:  C(inf)v, Symmetry Number:   1  
Rotational constants in cm-1:     0.000000     1.389841     1.389841 

Vibrational entropy computed according to the QRRHO of S. Grimme
Chem.Eur.J. 2012 18 9955 using a reference frequency of 100.0 cm-1


-------
ENTROPY
-------

The entropy contributions are T*S = T*(S(el)+S(vib)+S(rot)+S(trans))
     S(el)   - electronic entropy
     S(vib)  - vibrational entropy
     S(rot)  - rotational entropy
     S(trans)- translational entropy
The entropies will be listed as multiplied by the temperature to get
units of energy

Electronic entropy                ...      0.00000000 Eh      0.00 kcal/mol
Vibrational entropy               ...     -0.00000000 Eh     -0.00 kcal/mol
Rotational entropy                ...      0.00566945 Eh      3.56 kcal/mol
Translational entropy             ...      0.01770880 Eh     11.11 kcal/mol
-----------------------------------------------------------------------
Final entropy term                ...      0.02337825 Eh     14.67 kcal/mol


-------------------
GIBBS FREE ENERGY
-------------------

The Gibbs free energy is G = H - T*S

Total enthalpy                    ...   -182.67285408 Eh 
Total entropy correction          ...     -0.02337825 Eh    -14.67 kcal/mol
-----------------------------------------------------------------------
Final Gibbs free energy         ...   -182.69623233 Eh

For completeness - the Gibbs free energy minus the electronic energy
G-E(el)                           ...      0.02881939 Eh     18.08 kcal/mol


Maximum memory used throughout the entire PROP-calculation: 10.1 MB

--------------------------------
SUGGESTED CITATIONS FOR THIS RUN
--------------------------------

Below you find a list of papers that are relevant to this ORCA run
We neither can nor want to force you to cite these papers, but we appreciate if you do
You receive ORCA, which is the product of decades of hard work by many enthusiastic individuals, for free
The only thing we kindly ask in return is that you cite our papers,
We deeply appreciate it, if you show your appreciation for ORCA by not just citing the generic ORCA reference.

Please note that relegating all ORCA citations to the supporting information does *not* help us.
SI sections are not indexed - citations you put there will not count into any citation statistics
But we need these citations in order to attract the funding resources that allow us to do what we are doing

Therefore, if you are a happy ORCA user, please consider citing a few of the papers listed below in the main body of your paper

In addition to the list printed below, the program has created the file job.bibtex that contains the list in bibtex format
You can import this file easily into all common literature databanks and citation aid programs


List of essential papers. We consider these as the minimum necessary citations

  1. Neese,F.
     Software update: the ORCA program system, version 5.0
     WIRES Comput. Molec. Sci., 2022 12(1)e1606
     doi.org/10.1002/wcms.1606

List of papers to cite with high priority. The work reported in these papers was absolutely
necessary for this run to complete.
Our perspective: the developers of density functionals and basis sets usually get cited in chemistry papers
Good! But without the algorithms to do something with them, the functionals or basis sets would not do anything.
Hence, in our opinion, the algorithm design and method developments papers are equally worthy of getting cited

  1. Neese,F.
     An improvement of the resolution of the identity approximation for the formation of the Coulomb matrix
     J. Comp. Chem., 2003 24(14)1740-1747
     doi.org/10.1002/jcc.10318
  2. Neese,F.; Wennmohs,F.; Hansen,A.; Becker,U.
     Efficient, approximate and parallel Hartree-Fock and hybrid DFT calculations. A 'chain-of-spheres' algorithm for the Hartree-Fock exchange
     Chem. Phys., 2009 356(1-3)98-109
     doi.org/10.1016/j.chemphys.2008.10.036
  3. Bykov,D.; Petrenko,T.; Izsak,R.; Kossmann,S.; Becker,U.; Valeev,E.; Neese,F.
     Efficient implementation of the analytic second derivatives of Hartree-Fock and hybrid DFT energies: a detailed analysis of different approximations
     Molec. Phys., 2015 113 1961-1977
     doi.org/10.1080/00268976.2015.1025114
  4. Helmich-Paris,B.; de Souza,B.; Neese,F.; Izsák,R.
     An improved chain of spheres for exchange algorithm
     J. Chem. Phys., 2021 155 104109
     doi.org/doi: 10.1063/5.0058766.
  5. Neese,F.
     The SHARK Integral Generation and Digestion System
     J. Comp. Chem., 2022  1-16
     doi.org/10.1002/jcc.26942

List of suggested additional citations. These are papers that are important in the 'surrounding' of 
of this run, or papers that preceded the highly important papers. If you like your results we are grateful for a citation.

  1. Izsak,R.; Neese,F.
     An overlap fitted chain of spheres exchange method
     J. Chem. Phys., 2011 135 144105
     doi.org/10.1063/1.3646921
  2. Izsak,R.; Hansen,A.; Neese,F.
     The resolution of identity and chain of spheres approximations for the LPNO-CCSD singles Fock term
     Molec. Phys., 2012 110 2413-2417
     doi.org/10.1080/00268976.2012.687466
  3. Neese,F.
     The ORCA program system
     WIRES Comput. Molec. Sci., 2012 2(1)73-78
     doi.org/10.1002/wcms.81
  4. Izsak,R.; Neese,F.; Klopper,W.
     Robust fitting techniques in the chain of spheres approximation to the Fock exchange: The role of the complementary space
     J. Chem. Phys., 2013 139 
     doi.org/10.1063/1.4819264
  5. Neese,F.
     Software update: the ORCA program system, version 4.0
     WIRES Comput. Molec. Sci., 2018 8(1)1-6
     doi.org/10.1002/wcms.1327
  6. Neese,F.; Wennmohs,F.; Becker,U.; Riplinger,C.
     The ORCA quantum chemistry program package
     J. Chem. Phys., 2020 152 Art. No. L224108
     doi.org/10.1063/5.0004608

List of optional additional citations

  1. Neese,F.
     Approximate second-order SCF convergence for spin unrestricted wavefunctions
     Chem. Phys. Lett., 2000 325(1-3)93-98
     doi.org/10.1016/s0009-2614(00)00662-x

Timings for individual modules:

Sum of individual times          ...       14.861 sec (=   0.248 min)
Startup calculation              ...        0.175 sec (=   0.003 min)   1.2 %
SCF iterations                   ...        0.670 sec (=   0.011 min)   4.5 %
Property integrals               ...        1.584 sec (=   0.026 min)  10.7 %
SCF Response                     ...        0.683 sec (=   0.011 min)   4.6 %
Property calculations            ...       11.749 sec (=   0.196 min)  79.1 %
                             ****ORCA TERMINATED NORMALLY****
TOTAL RUN TIME: 0 days 0 hours 0 minutes 14 seconds 919 msec
