
                                 *****************
                                 * O   R   C   A *
                                 *****************

                                            #,                                       
                                            ###                                      
                                            ####                                     
                                            #####                                    
                                            ######                                   
                                           ########,                                 
                                     ,,################,,,,,                         
                               ,,#################################,,                 
                          ,,##########################################,,             
                       ,#########################################, ''#####,          
                    ,#############################################,,   '####,        
                  ,##################################################,,,,####,       
                ,###########''''           ''''###############################       
              ,#####''   ,,,,##########,,,,          '''####'''          '####       
            ,##' ,,,,###########################,,,                        '##       
           ' ,,###''''                  '''############,,,                           
         ,,##''                                '''############,,,,        ,,,,,,###''
      ,#''                                            '''#######################'''  
     '                                                          ''''####''''         
             ,#######,   #######,   ,#######,      ##                                
            ,#'     '#,  ##    ##  ,#'     '#,    #''#        ,####,   ,####,        
            ##       ##  ##   ,#'  ##            #'  '#       #'       #'  '#        
            ##       ##  #######   ##           ,######,      #####,   #    #        
            '#,     ,#'  ##    ##  '#,     ,#' ,#      #,     #,   #   #,  ,#        
             '#######'   ##     ##  '#######'  #'      '#     '####' # '####'        



                #########################################################
                #                        -***-                          #
                #          Department of theory and spectroscopy        #
                #                                                       #
                #                      Frank Neese                      #
                #                                                       #
                #     Directorship, Architecture, Infrastructure        #
                #                    SHARK, DRIVERS                     #
                #        Core code/Algorithms in most modules           #
                #                                                       #
                #        Max Planck Institute fuer Kohlenforschung      #
                #                Kaiser Wilhelm Platz 1                 #
                #                 D-45470 Muelheim/Ruhr                 #
                #                      Germany                          #
                #                                                       #
                #                  All rights reserved                  #
                #                        -***-                          #
                #########################################################


                         Program Version 6.0.1  -  RELEASE   -


 With contributions from (in alphabetic order):
[Max-Planck-Institut fuer Kohlenforschung]                               
  Daniel Aravena         : Magnetic Suceptibility                        
  Michael Atanasov       : Ab Initio Ligand Field Theory (pilot matlab implementation)
  Alexander A. Auer      : GIAO ZORA, VPT2 properties, NMR spectrum      
  Ute Becker             : All parallelization in ORCA, NUMFREQ, NUMCALC 
  Giovanni Bistoni       : ED, misc. LED, open-shell LED, HFLD           
  Martin Brehm           : Molecular dynamics                            
  Dmytro Bykov           : pre 5.0 version of the SCF Hessian            
  Marcos Casanova-Páez   : Triplet and SCS-CIS(D). UHF-(DLPNO)-IP/EA/STEOM-CCSD. UHF-CVS-IP/STEOM-CCSD   
  Vijay G. Chilkuri      : MRCI spin determinant printing, contributions to CSF-ICE 
  Pauline Colinet        : FMM embedding                                 
  Dipayan Datta          : RHF DLPNO-CCSD density                        
  Achintya Kumar Dutta   : EOM-CC, STEOM-CC                              
  Nicolas Foglia         : Exact transition moments, OPA infrastructure, MCD improvements    
  Dmitry Ganyushin       : Spin-Orbit,Spin-Spin,Magnetic field MRCI      
  Miquel Garcia-Rates    : C-PCM and meta-GGA Hessian, CCSD/C-PCM, Gaussian charge scheme 
  Tiago L. C. Gouveia    : GS-ROHF, GS-ROCIS                             
  Yang Guo               : DLPNO-NEVPT2, F12-NEVPT2, CIM, IAO-localization        
  Andreas Hansen         : Spin unrestricted coupled pair/coupled cluster methods 
  Ingolf Harden          : AUTO-CI MPn and infrastructure                
  Benjamin Helmich-Paris : MC-RPA, TRAH-(SCF,CASSCF), AVAS, COSX integrals, SCF dyn. polar. 
  Lee Huntington         : MR-EOM, pCC                                   
  Robert Izsak           : Overlap fitted RIJCOSX, COSX-SCS-MP3, EOM     
  Riya Kayal             : Wick's Theorem for AUTO-CI, AUTO-CI UHF-CCSDT 
  Emily Kempfer          : AUTO-CI, RHF CISDT and CCSDT                  
  Christian Kollmar      : KDIIS, OOCD, Brueckner-CCSD(T), CCSD density, CASPT2, CASPT2-K, improved NEVPT2 
  Axel Koslowski         : Symmetry handling                             
  Simone Kossmann        : meta-GGA functionals, TD-DFT gradient, OOMP2, (MP2 Hessian; deprecated post 5.0) 
  Lucas Lang             : DCDCAS                                        
  Marvin Lechner         : AUTO-CI (C++ implementation), FIC-MRCC        
  Spencer Leger          : CASSCF response                               
  Dagmar Lenk            : GEPOL surface, SMD, ORCA-2-JSON               
  Dimitrios Liakos       : Extrapolation schemes; Compound Job, initial MDCI parallelization 
  Dimitrios Manganas     : Further ROCIS development; embedding schemes. LFT, Crystal Embedding 
  Dimitrios Pantazis     : SARC Basis sets                               
  Anastasios Papadopoulos: AUTO-CI, single reference methods and gradients 
  Taras Petrenko         : pre 6.0 DFT Hessian and TD-DFT gradient, (ASA, deprecated), ECA, 1-Electron XAS/XES, NRVS 
  Peter Pinski           : DLPNO-MP2, DLPNO-MP2 Gradient                 
  Christoph Reimann      : Effective Core Potentials                     
  Marius Retegan         : Local ZFS, SOC                                
  Christoph Riplinger    : Optimizer, TS searches, QM/MM, DLPNO-CCSD(T), (RO)-DLPNO pert. Triples 
  Michael Roemelt        : Original ROCIS implementation                 
  Masaaki Saitow         : Open-shell DLPNO-CCSD energy and density      
  Barbara Sandhoefer     : DKH picture change effects                    
  Kantharuban Sivalingam : CASSCF convergence/infrastructure, NEVPT2 and variants, FIC-MRCI 
  Bernardo de Souza      : ESD, SOC TD-DFT                               
  Georgi L. Stoychev     : AutoAux, RI-MP2 NMR, DLPNO-MP2 response, X2C  
  Van Anh Tran           : RI-MP2 g-tensors                              
  Willem Van den Heuvel  : Paramagnetic NMR                              
  Zikuan Wang            : NOTCH, Electric field optimization            
  Frank Wennmohs         : Technical directorship and infrastructure     
  Hang Xu                : AUTO-CI-Response properties                   
                                                                         
[FACCTs GmbH]                                                            
  Markus Bursch, Miquel Garcia-Rates, Christoph Riplinger, Bernardo de Souza, Georgi L. Stoychev 
                                                                 
  APM, Basis sets (HGBS, AHGBS, def-TZVP (Ac-Lr), def2-XVPD (La-Lu)), CI-OPT, improved COSX, DLPNO-Multilevel,           
  DOCKER, DRACO, updates on ESD, GOAT, IRC, LR-CPCM, MBIS, meta-GGA TD-DFT gradient, ML-optimized integration grids, 
  MM, NACMEs, nearIR, NEB, NEB-TS, NL-DFT gradient (VV10), 2- and 3-layer-ONIOM, interface openCOSMO-RS, QMMM,   
  Crystal-QMMM, SF, symmetry and pop. for TD-DFT, r2SCAN hybrids, SOLVATOR                                   
                                                                         
[Other institutions]                                                     
  V. Asgeirsson          : NEB                                           
  Christoph Bannwarth    : sTDA-DFT, sTD-DFT, PBEh-3c, B97-3c, D3        
  Sebastian Ehlert       : rSCAN, r2SCAN, r2SCAN-3c, D4, dhf basis sets  
  Marvin Friede          : D4 for Fr, Ra, Ac-Lr                          
  Lars Goerigk           : TD-DFT with DH, B97 family of functionals     
  Stefan Grimme          : VdW corrections, initial TS optimization, DFT functionals, gCP, sTDA/sTD-DF 
  Waldemar Hujo          : DFT-NL                                        
  H. Jonsson             : NEB                                           
  Holger Kruse           : gCP                                           
  Marcel Mueller         : wB97X-3c, vDZP basis set                      
  Hagen Neugebauer       : wr2SCAN                                       
  Tobias Risthaus        : range-separated hybrid DFT                    
  Lukas Wittmann         : regularized MP2, r2SCAN double-hybrids, wr2SCAN        
                                                                         
We gratefully acknowledge several colleagues who have allowed us to      
interface, adapt or use parts of their codes:                            
  Ed Valeev, F. Pavosevic, A. Kumar             : LibInt (2-el integral package), F12 methods 
  Garnet Chan, S. Sharma, J. Yang, R. Olivares  : DMRG                   
  Ulf Ekstrom                                   : XCFun DFT Library      
  Mihaly Kallay                                 : mrcc  (arbitrary order and MRCC methods)
  Frank Weinhold                                : gennbo (NPA and NBO analysis)           
  Simon Mueller                                 : openCOSMO-RS                            
  Christopher J. Cramer and Donald G. Truhlar   : smd solvation model                     
  S Lehtola, MJT Oliveira, MAL Marques          : LibXC Library                           
  Liviu Ungur et al                             : ANISO software                          


 Your calculation uses the libint2 library for the computation of 2-el integrals
 For citations please refer to: http://libint.valeyev.net

 Your ORCA version has been built with support for libXC version: 6.2.2
 For citations please refer to: https://libxc.gitlab.io

 This ORCA versions uses:
   CBLAS   interface :  Fast vector & matrix operations
   LAPACKE interface :  Fast linear algebra routines
   SCALAPACK package :  Parallel linear algebra routines
   Shared memory     :  Shared parallel matrices
   BLAS/LAPACK       :  OpenBLAS 0.3.27  USE64BITINT DYNAMIC_ARCH NO_AFFINITY SkylakeX SINGLE_THREADED
        Core in use  :  SkylakeX
   Copyright (c) 2011-2014, The OpenBLAS Project


NOTE: MaxCore=2000 MB was set to SCF,MP2,MDCI,CIPSI,MRCI and CIS
      => If you want to overwrite this, your respective input block should be placed after the MaxCore statement
Warning: RI is on but no J-basis has been assigned. Assigning Def2/J (nothing to worry about!)
================================================================================

----- Orbital basis set information -----
Your calculation utilizes the basis: def2-TZVPD
   F. Weigend and R. Ahlrichs, Phys. Chem. Chem. Phys. 7, 3297 (2005).
   D. Rappoport and F. Furche, J. Chem. Phys. 133, 134105 (2010)
   D. Rappoport, J. Chem. Phys. 155, 124102 (2021).

----- AuxJ basis set information -----
Your calculation utilizes the auxiliary basis: def2/J
   F. Weigend, Phys. Chem. Chem. Phys. 8, 1057 (2006).

================================================================================
                                        WARNINGS
                       Please study these warnings very carefully!
================================================================================

WARNING: Old DensityContainer found on disk!
         Will remove this file - 
         If you want to keep old densities, please start your calculation with a different basename. 


WARNING: Geometry Optimization
  ===> : Switching off AutoStart
         For restart on a previous wavefunction, please use MOREAD

================================================================================
                                       INPUT FILE
================================================================================
NAME = h2o.inp
|  1> ! B3LYP def2-TZVPD Opt Freq TightSCF
|  2> %maxcore 2000
|  3> %geom
|  4> Calc_Hess true
|  5> Recalc_Hess 5
|  6> end
|  7> %output
|  8>   PrintLevel 5
|  9> end
| 10> * xyz 0 1
| 11> O    0.000000    0.000000    0.000000
| 12> H    1.200000    0.000000    0.000000
| 13> H   -1.200000    0.000000    0.000000
| 14> *
| 15> 
| 16>                          ****END OF INPUT****
================================================================================

                       *****************************
                       * Geometry Optimization Run *
                       *****************************

Geometry optimization settings:
Update method            Update   .... BFGS
Choice of coordinates    CoordSys .... (2022) Redundant Internals
Initial Hessian          InHess   .... Almloef's Model
Max. no of cycles        MaxIter  .... 50

Convergence Tolerances:
Energy Change            TolE     ....  5.0000e-06 Eh
Max. Gradient            TolMAXG  ....  3.0000e-04 Eh/bohr
RMS Gradient             TolRMSG  ....  1.0000e-04 Eh/bohr
Max. Displacement        TolMAXD  ....  4.0000e-03 bohr
RMS Displacement         TolRMSD  ....  2.0000e-03 bohr
Strict Convergence                .... False

------------------------------------------------------------------------------
                        ORCA OPTIMIZATION COORDINATE SETUP
------------------------------------------------------------------------------

The optimization will be done in redundant internal coordinates (2022)
Making redundant internal coordinates   ...  (2022 redundants) done
Evaluating the initial hessian          ...  (Is done on the fly) done
Evaluating the coordinates              ...  done
Calculating the B-matrix                .... done
Calculating the G-matrix                .... done
Diagonalizing the G-matrix              .... done
The first mode is                       ....    0
The number of degrees of freedom        ....    4

    -----------------------------------------------------------------
                    Redundant Internal Coordinates


    -----------------------------------------------------------------
         Definition                    Initial Value    d2E/dq (diagonal element)
    -----------------------------------------------------------------
      1. B(H   1,O   0)                  1.2000         0.000000   
      2. B(H   2,O   0)                  1.2000         0.000000   
      3. L(H   1,O   0,H   2, 2)       180.0000         0.000000   
      4. L(H   1,O   0,H   2, 1)       180.0000         0.000000   
    -----------------------------------------------------------------

Number of atoms                         .... 3
Number of degrees of freedom            .... 4


         *************************************************************
         *                GEOMETRY OPTIMIZATION CYCLE   1            *
         *************************************************************
---------------------------------
CARTESIAN COORDINATES (ANGSTROEM)
---------------------------------
  O      0.000000    0.000000    0.000000
  H      1.200000    0.000000    0.000000
  H     -1.200000    0.000000    0.000000

----------------------------
CARTESIAN COORDINATES (A.U.)
----------------------------
  NO LB      ZA    FRAG     MASS         X           Y           Z
   0 O     8.0000    0    15.999    0.000000    0.000000    0.000000
   1 H     1.0000    0     1.008    2.267671    0.000000    0.000000
   2 H     1.0000    0     1.008   -2.267671    0.000000    0.000000

--------------------------------
INTERNAL COORDINATES (ANGSTROEM)
--------------------------------
 O      0   0   0     0.000000000000     0.00000000     0.00000000
 H      1   0   0     1.200000000000     0.00000000     0.00000000
 H      1   2   0     1.200000000000   180.00000000     0.00000000

---------------------------
INTERNAL COORDINATES (A.U.)
---------------------------
 O      0   0   0     0.000000000000     0.00000000     0.00000000
 H      1   0   0     2.267671360706     0.00000000     0.00000000
 H      1   2   0     2.267671360706   180.00000000     0.00000000

---------------------
BASIS SET INFORMATION
---------------------
There are 2 groups of distinct atoms

 Group   1 Type O   : 12s7p3d1f contracted to 6s4p3d1f pattern {621111/4111/111/1}
 Group   2 Type H   : 5s2p contracted to 3s2p pattern {311/11}

Atom   0O    basis set group =>   1
Atom   1H    basis set group =>   2
Atom   2H    basis set group =>   2

-------------------------
BASIS SET IN INPUT FORMAT
-------------------------

 # Basis set for element : H 
 NewGTO H 
 S 3 
   1      34.0613410000      0.0254393072
   2       5.1235746000      0.1900859489
   3       1.1646626000      0.8524411301
 S 1 
   1       0.3272304100      1.0000000000
 S 1 
   1       0.1030724100      1.0000000000
 P 1 
   1       0.8000000000      1.0000000000
 P 1 
   1       0.0957741296      1.0000000000
  end;

 # Basis set for element : O 
 NewGTO O 
 S 6 
   1   27032.3826310000      0.0005722733
   2    4052.3871392000      0.0044353233
   3     922.3272271000      0.0230201076
   4     261.2407098900      0.0928224906
   5      85.3546413510      0.2937850002
   6      31.0350352450      0.6740160450
 S 2 
   1      12.2608607280      0.6383993702
   2       4.9987076005      0.3953458713
 S 1 
   1       1.1703108158      1.0000000000
 S 1 
   1       0.4647474099      1.0000000000
 S 1 
   1       0.1850453636      1.0000000000
 P 4 
   1      63.2749548010      0.0120183321
   2      14.6270493790      0.0830054217
   3       4.4501223456      0.3199174393
   4       1.5275799647      0.7071554292
 P 1 
   1       0.5293511794      1.0000000000
 P 1 
   1       0.1747842127      1.0000000000
 D 1 
   1       2.3140000000      1.0000000000
 D 1 
   1       0.6450000000      1.0000000000
 F 1 
   1       1.4280000000      1.0000000000
 S 1 
   1       0.0702880263      1.0000000000
 P 1 
   1       0.0511127457      1.0000000000
 D 1 
   1       0.1469647737      1.0000000000
  end;

---------------------------------
AUXILIARY/J BASIS SET INFORMATION
---------------------------------
There are 2 groups of distinct atoms

 Group   1 Type O   : 12s5p4d2f1g contracted to 6s4p3d1f1g pattern {711111/2111/211/2/1}
 Group   2 Type H   : 5s2p1d contracted to 3s1p1d pattern {311/2/1}

Atom   0O    basis set group =>   1
Atom   1H    basis set group =>   2
Atom   2H    basis set group =>   2

-------------------------------------
AUXILIARY/J BASIS SET IN INPUT FORMAT
-------------------------------------

 # Auxiliary/J basis set for element : H 
 NewAuxJGTO H 
 S 3 
   1      15.6752927000      0.1007184237
   2       3.6063578000      0.3404257499
   3       1.2080016000      0.6491996172
 S 1 
   1       0.4726794000      1.0000000000
 S 1 
   1       0.2018100000      1.0000000000
 P 2 
   1       2.0281365000      0.5596620919
   2       0.5358730000      0.5596620919
 D 1 
   1       2.2165124000      1.0000000000
  end;

 # Auxiliary/J basis set for element : O 
 NewAuxJGTO O 
 S 7 
   1    2876.8216605000      0.0168151159
   2    1004.7443032000      0.0340137548
   3     369.7579954000      0.1194951309
   4     142.9442404000      0.2664627624
   5      57.8366425000      0.4202764046
   6      24.3864983000      0.2765077335
   7      10.6622662000      0.0057008815
 S 1 
   1       4.8070437000     -1.0000000000
 S 1 
   1       2.2210770000      1.0000000000
 S 1 
   1       1.0447795000      1.0000000000
 S 1 
   1       0.4968425000      1.0000000000
 S 1 
   1       0.2371384000      1.0000000000
 P 2 
   1      64.2613382000     -0.2731534179
   2      16.3006076000     -0.8168011598
 P 1 
   1       4.3550542000      1.0000000000
 P 1 
   1       1.2019554000      1.0000000000
 P 1 
   1       0.3354196000      1.0000000000
 D 2 
   1       9.2146611000     -0.4661230638
   2       2.8435251000     -0.6600908911
 D 1 
   1       0.9955759000     -1.0000000000
 D 1 
   1       0.3649441000     -1.0000000000
 F 2 
   1       2.6420115000      0.5931563945
   2       0.7345613000      0.5931563945
 G 1 
   1       1.3931000000     -1.0000000000
  end;

------------------------------------------------------------------------------
                             ORCA STARTUP CALCULATIONS
                           -- RI-GTO INTEGRALS CHOSEN --
------------------------------------------------------------------------------
------------------------------------------------------------------------------
                   ___                                                        
                  /   \      - P O W E R E D   B Y -                         
                 /     \                                                     
                 |  |  |   _    _      __       _____    __    __             
                 |  |  |  | |  | |    /  \     |  _  \  |  |  /  |          
                  \  \/   | |  | |   /    \    | | | |  |  | /  /          
                 / \  \   | |__| |  /  /\  \   | |_| |  |  |/  /          
                |  |  |   |  __  | /  /__\  \  |    /   |      \           
                |  |  |   | |  | | |   __   |  |    \   |  |\   \          
                \     /   | |  | | |  |  |  |  | |\  \  |  | \   \       
                 \___/    |_|  |_| |__|  |__|  |_| \__\ |__|  \__/        
                                                                              
                      - O R C A' S   B I G   F R I E N D -                    
                                      &                                       
                       - I N T E G R A L  F E E D E R -                       
                                                                              
 v1 FN, 2020, v2 2021, v3 2022-2024                                           
------------------------------------------------------------------------------


----------------------
SHARK INTEGRAL PACKAGE
----------------------

Number of atoms                             ...      3
Number of basis functions                   ...     58
Number of shells                            ...     24
Maximum angular momentum                    ...      3
Integral batch strategy                     ... SHARK/LIBINT Hybrid
RI-J (if used) integral strategy            ... SPLIT-RIJ (Revised 2003 algorithm where possible)
Printlevel                                  ...      1
Contraction scheme used                     ... SEGMENTED contraction
Prescreening option                         ... SCHWARTZ
   Thresh                                   ... 2.500e-11
   Tcut                                     ... 2.500e-12
   Tpresel                                  ... 2.500e-12 
Coulomb Range Separation                    ... NOT USED
Exchange Range Separation                   ... NOT USED
Multipole approximations                    ... NOT USED
Finite Nucleus Model                        ... NOT USED
CABS basis                                  ... NOT available
Auxiliary Coulomb fitting basis             ... AVAILABLE
   # of basis functions in Aux-J            ...     71
   # of shells in Aux-J                     ...     25
   Maximum angular momentum in Aux-J        ...      4
Auxiliary J/K fitting basis                 ... NOT available
Auxiliary Correlation fitting basis         ... NOT available
Auxiliary 'external' fitting basis          ... NOT available

Checking pre-screening integrals            ... done (  0.0 sec) Dimension = 24
Check shell pair data                       ... done (  0.0 sec)
Shell pair information
Shell pair cut-off parameter TPreSel        ...   2.5e-12
Total number of shell pairs                 ...       300
Shell pairs after pre-screening             ...       300
Total number of primitive shell pairs       ...       731
Primitive shell pairs kept                  ...       709
          la=0 lb=0:     78 shell pairs
          la=1 lb=0:     96 shell pairs
          la=1 lb=1:     36 shell pairs
          la=2 lb=0:     36 shell pairs
          la=2 lb=1:     24 shell pairs
          la=2 lb=2:      6 shell pairs
          la=3 lb=0:     12 shell pairs
          la=3 lb=1:      8 shell pairs
          la=3 lb=2:      3 shell pairs
          la=3 lb=3:      1 shell pairs

Calculating one electron integrals          ... done (  0.0 sec)
Calculating RI/J V-Matrix + Cholesky decomp.... done (  0.0 sec)
Calculating Nuclear repulsion               ... done (  0.0 sec) ENN=      7.276186614125 Eh

Diagonalization of the overlap matrix:
Smallest eigenvalue                        ... 1.812e-03
Time for diagonalization                   ...    0.000 sec
Threshold for overlap eigenvalues          ... 1.000e-07
Number of eigenvalues below threshold      ... 0
Time for construction of square roots      ...    0.000 sec
Total time needed                          ...    0.001 sec

-------------------
DFT GRID GENERATION
-------------------

General Integration Accuracy     IntAcc      ... 4.388
Radial Grid Type                 RadialGrid  ... OptM3 with GC (2021)
Angular Grid (max. ang.)         AngularGrid ... 4 (Lebedev-302)
Angular grid pruning method      GridPruning ... 4 (adaptive)
Weight generation scheme         WeightScheme... mBecke (2022)
Basis function cutoff            BFCut       ... 1.0000e-11
Integration weight cutoff        WCut        ... 1.0000e-14
Partially contracted basis set               ... off
Rotationally invariant grid construction     ... off
Angular grids for H and He will be reduced by one unit
Diffuse basis detected: some atoms will have their outermost
                        angular grid increased by 1.

Total number of grid points                  ...    13566
Total number of batches                      ...      214
Average number of points per batch           ...       63
Average number of grid points per atom       ...     4522

--------------------
COSX GRID GENERATION
--------------------

GRIDX 1
-------
General Integration Accuracy     IntAcc      ... 3.816
Radial Grid Type                 RadialGrid  ... OptM3 with GC (2021)
Angular Grid (max. ang.)         AngularGrid ... 1 (Lebedev-50)
Angular grid pruning method      GridPruning ... 4 (adaptive)
Weight generation scheme         WeightScheme... mBecke (2022)
Basis function cutoff            BFCut       ... 1.0000e-11
Integration weight cutoff        WCut        ... 1.0000e-14
Partially contracted basis set               ... on
Rotationally invariant grid construction     ... off
Angular grids for H and He will be reduced by one unit
Diffuse basis detected: some atoms will have their outermost
                        angular grid increased by 1.

Total number of grid points                  ...     1698
Total number of batches                      ...       16
Average number of points per batch           ...      106
Average number of grid points per atom       ...      566
UseSFitting                                  ... on

GRIDX 2
-------
General Integration Accuracy     IntAcc      ... 4.020
Radial Grid Type                 RadialGrid  ... OptM3 with GC (2021)
Angular Grid (max. ang.)         AngularGrid ... 2 (Lebedev-110)
Angular grid pruning method      GridPruning ... 4 (adaptive)
Weight generation scheme         WeightScheme... mBecke (2022)
Basis function cutoff            BFCut       ... 1.0000e-11
Integration weight cutoff        WCut        ... 1.0000e-14
Partially contracted basis set               ... on
Rotationally invariant grid construction     ... off
Angular grids for H and He will be reduced by one unit
Diffuse basis detected: some atoms will have their outermost
                        angular grid increased by 1.

Total number of grid points                  ...     4158
Total number of batches                      ...       35
Average number of points per batch           ...      118
Average number of grid points per atom       ...     1386
UseSFitting                                  ... on

GRIDX 3
-------
General Integration Accuracy     IntAcc      ... 4.338
Radial Grid Type                 RadialGrid  ... OptM3 with GC (2021)
Angular Grid (max. ang.)         AngularGrid ... 3 (Lebedev-194)
Angular grid pruning method      GridPruning ... 4 (adaptive)
Weight generation scheme         WeightScheme... mBecke (2022)
Basis function cutoff            BFCut       ... 1.0000e-11
Integration weight cutoff        WCut        ... 1.0000e-14
Partially contracted basis set               ... on
Rotationally invariant grid construction     ... off
Angular grids for H and He will be reduced by one unit
Diffuse basis detected: some atoms will have their outermost
                        angular grid increased by 1.

Total number of grid points                  ...     9558
Total number of batches                      ...       76
Average number of points per batch           ...      125
Average number of grid points per atom       ...     3186
UseSFitting                                  ... on
Initializing property integral containers    ... done (  0.0 sec)

SHARK setup successfully completed in   0.2 seconds

Maximum memory used throughout the entire STARTUP-calculation: 13.7 MB
-------------------------------------------------------------------------------
                                 ORCA GUESS
                   Start orbitals & Density for SCF / CASSCF
-------------------------------------------------------------------------------

------------
SCF SETTINGS
------------
Hamiltonian:
 Density Functional     Method          .... DFT(GTOs)
 Exchange Functional    Exchange        .... B88
   X-Alpha parameter    XAlpha          ....  0.666667
   Becke's b parameter  XBeta           ....  0.004200
 Correlation Functional Correlation     .... LYP
 LDA part of GGA corr.  LDAOpt          .... VWN-5
 Gradients option       PostSCFGGA      .... off
 Hybrid DFT is turned on
   Fraction HF Exchange ScalHFX         ....  0.200000
   Scaling of DF-GGA-X  ScalDFX         ....  0.720000
   Scaling of DF-GGA-C  ScalDFC         ....  0.810000
   Scaling of DF-LDA-C  ScalLDAC        ....  1.000000
   Perturbative correction              ....  0.000000
   NL short-range parameter             ....  4.800000
 RI-approximation to the Coulomb term is turned on
   Number of AuxJ basis functions       .... 71
   RIJ-COSX (HFX calculated with COS-X)).... on


General Settings:
 Integral files         IntName         .... h2o
 Hartree-Fock type      HFTyp           .... RHF
 Total Charge           Charge          ....    0
 Multiplicity           Mult            ....    1
 Number of Electrons    NEL             ....   10
 Basis Dimension        Dim             ....   58
 Nuclear Repulsion      ENuc            ....      7.2761866141 Eh

Convergence Acceleration:
 AO-DIIS                CNVDIIS         .... on
   Start iteration      DIISMaxIt       ....    12
   Startup error        DIISStart       ....  0.200000
   # of expansion vecs  DIISMaxEq       ....     5
   Bias factor          DIISBfac        ....   1.050
   Max. coefficient     DIISMaxC        ....  10.000
 MO-DIIS                CNVKDIIS        .... off
 Trust-Rad. Augm. Hess. CNVTRAH         .... auto
   Auto Start mean grad. ratio tolernc. ....  1.125000
   Auto Start start iteration           ....    50
   Auto Start num. interpolation iter.  ....    10
   Max. Number of Micro iterations      ....    24
   Max. Number of Macro iterations      .... Maxiter - #DIIS iter
   Number of Davidson start vectors     ....     2
   Converg. threshold    (grad. norm)   ....   1.000e-05
   Grad. Scal. Fac. for Micro threshold ....   0.100
   Minimum threshold for Micro iter.    ....   1.000e-02
   NR start threshold (gradient norm)   ....   1.000e-04
   Initial trust radius                 ....   0.400
   Minimum AH scaling param. (alpha)    ....   1.000
   Maximum AH scaling param. (alpha)    .... 1000.000
   Quad. conv. algorithm                .... NR
   White noise on init. David. guess    .... on
   Maximum white noise                  ....   0.010
   Pseudo random numbers                .... off
   Inactive MOs                         .... canonical
   Orbital update algorithm             .... Taylor
   Preconditioner                       .... Diag
   Full preconditioner red. dimension   ....   250
 SOSCF                  CNVSOSCF        .... on
   Start iteration      SOSCFMaxIt      ....   150
   Startup grad/error   SOSCFStart      ....  0.003300
   Hessian update       SOSCFHessUp     .... L-BFGS
 Level Shifting         CNVShift        .... on
   Level shift para.    LevelShift      ....    0.2500
   Turn off err/grad.   ShiftErr        ....    0.0010
 Zerner damping         CNVZerner       .... off
 Static damping         CNVDamp         .... on
   Fraction old density DampFac         ....    0.7000
   Max. Damping (<1)    DampMax         ....    0.9800
   Min. Damping (>=0)   DampMin         ....    0.0000
   Turn off err/grad.   DampErr         ....    0.1000

SCF Procedure:
 Maximum # iterations   MaxIter         ....   125
 SCF integral mode      SCFMode         .... Direct
   Integral package                     .... SHARK and LIBINT hybrid scheme
 Reset frequency        DirectResetFreq ....    20
 Integral Threshold     Thresh          ....  2.500e-11 Eh
 Primitive CutOff       TCut            ....  2.500e-12 Eh

Convergence Tolerance:
 Convergence Check Mode ConvCheckMode   .... Total+1el-Energy
 Convergence forced     ConvForced      .... 0
 Energy Change          TolE            ....  1.000e-08 Eh
 1-El. energy change                    ....  1.000e-05 Eh
 Orbital Gradient       TolG            ....  1.000e-05
 Orbital Rotation angle TolX            ....  1.000e-05
 DIIS Error             TolErr          ....  5.000e-07

------------------------------
INITIAL GUESS: MODEL POTENTIAL
------------------------------
Loading Hartree-Fock densities                     ... done
Calculating cut-offs                               ... done
Initializing the effective Hamiltonian             ... done
Setting up the integral package (SHARK)            ... done
Starting the Coulomb interaction                   ... done (   0.0 sec)
Making the grid                                    ... done (   0.0 sec)
Mapping shells                                     ... done
Starting the XC term evaluation                    ... done (   0.0 sec)
  promolecular density results
     # of electrons  =      9.998973921
     EX              =     -8.693431832
     EC              =     -0.327548369
     EX+EC           =     -9.020980202
Transforming the Hamiltonian                       ... done (   0.0 sec)
Diagonalizing the Hamiltonian                      ... done (   0.0 sec)
Back transforming the eigenvectors                 ... done (   0.0 sec)
Now organizing SCF variables                       ... done
                      ------------------
                      INITIAL GUESS DONE (   0.0 sec)
                      ------------------
----------------------
INITIAL GUESS ORBITALS
----------------------
                      0         1         2         3         4         5   
                 -18.95947  -0.94426  -0.52366  -0.36009  -0.36009  -0.12975
                   2.00000   2.00000   2.00000   2.00000   2.00000   0.00000
                  --------  --------  --------  --------  --------  --------
  0O   1s         0.435619  0.107378  0.000000 -0.000000 -0.000000 -0.042728
  0O   2s         0.638567  0.250927  0.000000  0.000000 -0.000000 -0.102080
  0O   3s         0.037618 -0.380866 -0.000000 -0.000000 -0.000000  0.173941
  0O   4s        -0.028029 -0.499892  0.000000  0.000000  0.000000  0.300182
  0O   5s         0.021113 -0.189286 -0.000000 -0.000000 -0.000000  0.188496
  0O   1pz       -0.000000  0.000000 -0.000000 -0.170958 -0.480419 -0.000000
  0O   1px       -0.000000  0.000000  0.409272  0.000000  0.000000  0.000000
  0O   1py       -0.000000  0.000000  0.000000 -0.480419  0.170958 -0.000000
  0O   2pz        0.000000 -0.000000  0.000000 -0.137852 -0.387387  0.000000
  0O   2px        0.000000 -0.000000  0.324228 -0.000000 -0.000000  0.000000
  0O   2py        0.000000 -0.000000  0.000000 -0.387387  0.137852  0.000000
  0O   3pz       -0.000000  0.000000 -0.000000 -0.087377 -0.245543 -0.000000
  0O   3px       -0.000000  0.000000  0.142563 -0.000000  0.000000 -0.000000
  0O   3py       -0.000000  0.000000 -0.000000 -0.245543  0.087377 -0.000000
  0O   1dz2      -0.000188  0.001314 -0.000000 -0.000000  0.000000  0.004160
  0O   1dxz      -0.000000 -0.000000  0.000000 -0.000000  0.000000  0.000000
  0O   1dyz       0.000000 -0.000000  0.000000 -0.000000  0.000000  0.000000
  0O   1dx2y2     0.000326 -0.002277  0.000000  0.000000  0.000000 -0.007205
  0O   1dxy      -0.000000  0.000000 -0.000000  0.000000 -0.000000 -0.000000
  0O   2dz2       0.000707  0.006636  0.000000  0.000000 -0.000000  0.013850
  0O   2dxz       0.000000  0.000000 -0.000000  0.000000 -0.000000 -0.000000
  0O   2dyz      -0.000000 -0.000000 -0.000000  0.000000 -0.000000  0.000000
  0O   2dx2y2    -0.001224 -0.011495 -0.000000 -0.000000 -0.000000 -0.023989
  0O   2dxy       0.000000 -0.000000  0.000000 -0.000000  0.000000  0.000000
  0O   1f0       -0.000000 -0.000000 -0.000000  0.000757  0.002126  0.000000
  0O   1f+1       0.000000 -0.000000 -0.003077  0.000000  0.000000  0.000000
  0O   1f-1      -0.000000  0.000000  0.000000  0.001012 -0.000360 -0.000000
  0O   1f+2       0.000000  0.000000  0.000000 -0.001042 -0.002927  0.000000
  0O   1f-2       0.000000 -0.000000  0.000000  0.000000 -0.000000 -0.000000
  0O   1f+3       0.000000 -0.000000 -0.003973  0.000000 -0.000000  0.000000
  0O   1f-3       0.000000 -0.000000 -0.000000  0.003474 -0.001236  0.000000
  0O   6s         0.009633 -0.009582 -0.000000 -0.000000 -0.000000 -0.616222
  0O   4pz       -0.000000 -0.000000  0.000000 -0.004863 -0.013666 -0.000000
  0O   4px       -0.000000 -0.000000  0.012678 -0.000000  0.000000 -0.000000
  0O   4py       -0.000000  0.000000 -0.000000 -0.013666  0.004863  0.000000
  0O   3dz2      -0.001182 -0.000107  0.000000  0.000000  0.000000  0.034537
  0O   3dxz      -0.000000 -0.000000  0.000000 -0.000000  0.000000  0.000000
  0O   3dyz      -0.000000 -0.000000  0.000000 -0.000000  0.000000  0.000000
  0O   3dx2y2     0.002047  0.000186 -0.000000 -0.000000 -0.000000 -0.059819
  0O   3dxy       0.000000  0.000000 -0.000000  0.000000 -0.000000  0.000000
  1H   1s         0.000292 -0.049307  0.120841 -0.000000 -0.000000 -0.153524
  1H   2s         0.000121 -0.041583  0.155761  0.000000  0.000000 -0.294620
  1H   3s        -0.010155  0.002487  0.030868  0.000000  0.000000 -0.077327
  1H   1pz       -0.000000 -0.000000  0.000000 -0.005186 -0.014574 -0.000000
  1H   1px       -0.001008  0.010348 -0.017725 -0.000000 -0.000000 -0.016238
  1H   1py       -0.000000  0.000000 -0.000000 -0.014574  0.005186  0.000000
  1H   2pz        0.000000  0.000000 -0.000000 -0.004190 -0.011774  0.000000
  1H   2px        0.003209 -0.001493 -0.000246 -0.000000 -0.000000 -0.180126
  1H   2py        0.000000 -0.000000  0.000000 -0.011774  0.004190 -0.000000
  2H   1s         0.000292 -0.049307 -0.120841 -0.000000 -0.000000 -0.153524
  2H   2s         0.000121 -0.041583 -0.155761  0.000000  0.000000 -0.294620
  2H   3s        -0.010155  0.002487 -0.030868  0.000000  0.000000 -0.077327
  2H   1pz        0.000000 -0.000000  0.000000 -0.005186 -0.014574 -0.000000
  2H   1px        0.001008 -0.010348 -0.017725  0.000000  0.000000  0.016238
  2H   1py        0.000000  0.000000  0.000000 -0.014574  0.005186  0.000000
  2H   2pz        0.000000 -0.000000  0.000000 -0.004190 -0.011774  0.000000
  2H   2px       -0.003209  0.001493 -0.000246  0.000000  0.000000  0.180126
  2H   2py        0.000000  0.000000  0.000000 -0.011774  0.004190 -0.000000
                      6         7         8         9        10        11   
                  -0.02307   0.05825   0.05825   0.06132   0.13450   0.13850
                   0.00000   0.00000   0.00000   0.00000   0.00000   0.00000
                  --------  --------  --------  --------  --------  --------
  0O   1s         0.000000  0.000000  0.000000  0.000404  0.000000 -0.000000
  0O   2s         0.000000  0.000000  0.000000  0.002930  0.000000 -0.000000
  0O   3s        -0.000000 -0.000000 -0.000000 -0.039359 -0.000000  0.000000
  0O   4s         0.000000  0.000000  0.000000  0.242842  0.000000 -0.000000
  0O   5s        -0.000000 -0.000000 -0.000000 -0.865917 -0.000000  0.000000
  0O   1pz       -0.000000 -0.145063 -0.055788  0.000000 -0.000000  0.000000
  0O   1px       -0.292536  0.000000 -0.000000  0.000000  0.246838  0.000000
  0O   1py        0.000000  0.055788 -0.145063 -0.000000  0.000000  0.000000
  0O   2pz       -0.000000 -0.096715 -0.037194  0.000000 -0.000000  0.000000
  0O   2px       -0.266923 -0.000000  0.000000 -0.000000  0.154067  0.000000
  0O   2py        0.000000  0.037194 -0.096715 -0.000000  0.000000  0.000000
  0O   3pz       -0.000000 -0.177337 -0.068200  0.000000  0.000000  0.000000
  0O   3px       -0.134175 -0.000000  0.000000 -0.000000  0.707420  0.000000
  0O   3py       -0.000000  0.068200 -0.177337 -0.000000 -0.000000  0.000000
  0O   1dz2      -0.000000 -0.000000  0.000000 -0.004037 -0.000000  0.000000
  0O   1dxz       0.000000  0.000000 -0.000000  0.000000  0.000000 -0.000714
  0O   1dyz       0.000000  0.000000  0.000000  0.000000 -0.000000  0.000000
  0O   1dx2y2     0.000000  0.000000 -0.000000  0.006992  0.000000 -0.000000
  0O   1dxy      -0.000000 -0.000000 -0.000000 -0.000000  0.000000 -0.000754
  0O   2dz2       0.000000 -0.000000 -0.000000 -0.016108  0.000000 -0.000000
  0O   2dxz      -0.000000 -0.000000  0.000000 -0.000000  0.000000 -0.032401
  0O   2dyz      -0.000000 -0.000000  0.000000 -0.000000  0.000000 -0.000000
  0O   2dx2y2    -0.000000  0.000000  0.000000  0.027900 -0.000000  0.000000
  0O   2dxy       0.000000  0.000000  0.000000  0.000000 -0.000000 -0.034210
  0O   1f0       -0.000000  0.000786  0.000302 -0.000000 -0.000000  0.000000
  0O   1f+1      -0.000206  0.000000 -0.000000  0.000000  0.001292  0.000000
  0O   1f-1       0.000000 -0.000116  0.000302 -0.000000  0.000000 -0.000000
  0O   1f+2       0.000000 -0.000991 -0.000381  0.000000  0.000000  0.000000
  0O   1f-2       0.000000  0.000000  0.000000 -0.000000  0.000000 -0.000000
  0O   1f+3      -0.000266  0.000000 -0.000000  0.000000  0.001668  0.000000
  0O   1f-3       0.000000 -0.000473  0.001229  0.000000  0.000000 -0.000000
  0O   6s        -0.000000 -0.000000 -0.000000 -5.590300 -0.000000 -0.000000
  0O   4pz        0.000000  1.100446  0.423206 -0.000000  0.000000  0.000000
  0O   4px        0.644249  0.000000 -0.000000  0.000000  2.430323  0.000000
  0O   4py       -0.000000 -0.423206  1.100446  0.000000  0.000000  0.000000
  0O   3dz2       0.000000  0.000000 -0.000000  0.240460  0.000000  0.000000
  0O   3dxz       0.000000 -0.000000  0.000000  0.000000 -0.000000  0.191266
  0O   3dyz       0.000000  0.000000  0.000000  0.000000 -0.000000  0.000000
  0O   3dx2y2    -0.000000 -0.000000  0.000000 -0.416489 -0.000000 -0.000000
  0O   3dxy       0.000000  0.000000 -0.000000 -0.000000  0.000000  0.201946
  1H   1s         0.066386  0.000000  0.000000  0.099446 -0.116190 -0.000000
  1H   2s         0.206706  0.000000 -0.000000  0.344945 -0.172207 -0.000000
  1H   3s        -0.059015  0.000000  0.000000  2.964550 -2.515828 -0.000000
  1H   1pz        0.000000  0.011353  0.004366 -0.000000  0.000000 -0.021971
  1H   1px        0.028479 -0.000000  0.000000 -0.012436 -0.014222 -0.000000
  1H   1py       -0.000000 -0.004366  0.011353  0.000000 -0.000000 -0.023198
  1H   2pz       -0.000000 -0.054153 -0.020826  0.000000  0.000000 -0.742198
  1H   2px        0.233544 -0.000000 -0.000000 -0.722009  0.188102  0.000000
  1H   2py        0.000000  0.020826 -0.054153  0.000000 -0.000000 -0.783640
  2H   1s        -0.066386  0.000000  0.000000  0.099446  0.116190  0.000000
  2H   2s        -0.206706  0.000000 -0.000000  0.344945  0.172207  0.000000
  2H   3s         0.059015  0.000000  0.000000  2.964550  2.515828  0.000000
  2H   1pz       -0.000000  0.011353  0.004366 -0.000000 -0.000000  0.021971
  2H   1px        0.028479  0.000000  0.000000  0.012436 -0.014222 -0.000000
  2H   1py        0.000000 -0.004366  0.011353  0.000000  0.000000  0.023198
  2H   2pz       -0.000000 -0.054153 -0.020826  0.000000 -0.000000  0.742198
  2H   2px        0.233544  0.000000  0.000000  0.722009  0.188102  0.000000
  2H   2py        0.000000  0.020826 -0.054153 -0.000000  0.000000  0.783640
                     12        13        14        15        16        17   
                   0.13850   0.17595   0.24987   0.24987   0.26479   0.31905
                   0.00000   0.00000   0.00000   0.00000   0.00000   0.00000
                  --------  --------  --------  --------  --------  --------
  0O   1s        -0.000000 -0.029924  0.000000 -0.000000 -0.000000 -0.000000
  0O   2s         0.000000 -0.076867  0.000000 -0.000000  0.000000 -0.000000
  0O   3s        -0.000000  0.206370  0.000000 -0.000000 -0.000000  0.000000
  0O   4s         0.000000 -0.154050 -0.000000  0.000000 -0.000000 -0.000000
  0O   5s        -0.000000  2.142012  0.000000 -0.000000  0.000000  0.000000
  0O   1pz        0.000000 -0.000000  0.098533  0.088195  0.000000 -0.000000
  0O   1px        0.000000  0.000000  0.000000 -0.000000  0.138231  0.000000
  0O   1py       -0.000000 -0.000000  0.088195 -0.098533 -0.000000  0.000000
  0O   2pz       -0.000000  0.000000  0.049384  0.044203  0.000000  0.000000
  0O   2px        0.000000  0.000000  0.000000 -0.000000  0.019720 -0.000000
  0O   2py        0.000000  0.000000  0.044203 -0.049384 -0.000000 -0.000000
  0O   3pz        0.000000 -0.000000  0.348119  0.311593  0.000000  0.000000
  0O   3px        0.000000  0.000000  0.000000 -0.000000  1.402159  0.000000
  0O   3py       -0.000000 -0.000000  0.311593 -0.348119 -0.000000 -0.000000
  0O   1dz2       0.000000  0.003037 -0.000000 -0.000000  0.000000 -0.016622
  0O   1dxz      -0.000754 -0.000000 -0.000000 -0.000000  0.000000 -0.000000
  0O   1dyz      -0.000000  0.000000 -0.000000 -0.000000 -0.000000 -0.000000
  0O   1dx2y2    -0.000000 -0.005261  0.000000  0.000000 -0.000000 -0.009597
  0O   1dxy       0.000714  0.000000 -0.000000  0.000000  0.000000 -0.000000
  0O   2dz2      -0.000000 -0.005677  0.000000  0.000000 -0.000000  0.000124
  0O   2dxz      -0.034210  0.000000  0.000000  0.000000 -0.000000  0.000000
  0O   2dyz      -0.000000 -0.000000  0.000000  0.000000  0.000000  0.000000
  0O   2dx2y2     0.000000  0.009833 -0.000000 -0.000000  0.000000  0.000072
  0O   2dxy       0.032401 -0.000000  0.000000 -0.000000 -0.000000  0.000000
  0O   1f0        0.000000  0.000000  0.000429  0.000384  0.000000  0.000000
  0O   1f+1       0.000000 -0.000000 -0.000000  0.000000 -0.004715  0.000000
  0O   1f-1      -0.000000 -0.000000  0.000181 -0.000203 -0.000000 -0.000000
  0O   1f+2       0.000000 -0.000000 -0.000589 -0.000527  0.000000 -0.000000
  0O   1f-2      -0.000000 -0.000000  0.000000  0.000000 -0.000000 -0.000000
  0O   1f+3       0.000000 -0.000000 -0.000000  0.000000 -0.006087  0.000000
  0O   1f-3       0.000000 -0.000000  0.000627 -0.000700 -0.000000 -0.000000
  0O   6s        -0.000000  1.357736  0.000000 -0.000000  0.000000  0.000000
  0O   4pz        0.000000 -0.000000  1.524511  1.364551  0.000000  0.000000
  0O   4px        0.000000  0.000000 -0.000000  0.000000 -1.339348  0.000000
  0O   4py       -0.000000  0.000000  1.364551 -1.524511 -0.000000 -0.000000
  0O   3dz2       0.000000  0.101105  0.000000  0.000000 -0.000000 -0.864701
  0O   3dxz       0.201946 -0.000000  0.000000  0.000000 -0.000000 -0.000000
  0O   3dyz      -0.000000  0.000000 -0.000000 -0.000000 -0.000000 -0.000000
  0O   3dx2y2    -0.000000 -0.175119 -0.000000 -0.000000  0.000000 -0.499236
  0O   3dxy      -0.191266 -0.000000  0.000000 -0.000000  0.000000 -0.000000
  1H   1s        -0.000000 -0.071588 -0.000000 -0.000000 -0.013082  0.000000
  1H   2s         0.000000 -0.091419  0.000000  0.000000 -0.216284 -0.000000
  1H   3s        -0.000000 -1.185407 -0.000000  0.000000 -1.730963 -0.000000
  1H   1pz       -0.023198 -0.000000 -0.014758 -0.013209 -0.000000  0.000000
  1H   1px       -0.000000  0.012973  0.000000 -0.000000  0.019044  0.000000
  1H   1py        0.021971 -0.000000 -0.013209  0.014758  0.000000 -0.000000
  1H   2pz       -0.783640  0.000000 -1.206778 -1.080156 -0.000000 -0.000000
  1H   2px        0.000000  1.413579  0.000000 -0.000000  2.379626  0.000000
  1H   2py        0.742198 -0.000000 -1.080156  1.206778  0.000000  0.000000
  2H   1s         0.000000 -0.071588  0.000000 -0.000000  0.013082  0.000000
  2H   2s         0.000000 -0.091419  0.000000  0.000000  0.216284 -0.000000
  2H   3s         0.000000 -1.185407 -0.000000  0.000000  1.730963 -0.000000
  2H   1pz        0.023198  0.000000 -0.014758 -0.013209 -0.000000  0.000000
  2H   1px       -0.000000 -0.012973  0.000000  0.000000  0.019044 -0.000000
  2H   1py       -0.021971 -0.000000 -0.013209  0.014758  0.000000 -0.000000
  2H   2pz        0.783640  0.000000 -1.206778 -1.080156 -0.000000 -0.000000
  2H   2px        0.000000 -1.413579 -0.000000 -0.000000  2.379626 -0.000000
  2H   2py       -0.742198 -0.000000 -1.080156  1.206778  0.000000  0.000000
                     18        19        20        21        22        23   
                   0.32018   0.36471   0.46496   0.46496   0.50151   0.55343
                   0.00000   0.00000   0.00000   0.00000   0.00000   0.00000
                  --------  --------  --------  --------  --------  --------
  0O   1s        -0.000000 -0.014077  0.000000  0.000000  0.000000 -0.000000
  0O   2s        -0.000000 -0.038380 -0.000000  0.000000  0.000000 -0.000000
  0O   3s         0.000000  0.138298  0.000000 -0.000000  0.000000 -0.000000
  0O   4s         0.000000 -0.350417 -0.000000  0.000000 -0.000000  0.000000
  0O   5s        -0.000000  2.286248  0.000000 -0.000000  0.000000 -0.000000
  0O   1pz       -0.000000 -0.000000  0.000000 -0.000000 -0.000000 -0.284456
  0O   1px        0.000000 -0.000000  0.000000 -0.000000  0.197484 -0.000000
  0O   1py        0.000000 -0.000000 -0.000000 -0.000000  0.000000 -0.112986
  0O   2pz        0.000000  0.000000  0.000000 -0.000000 -0.000000 -0.658598
  0O   2px       -0.000000  0.000000  0.000000 -0.000000  0.359795 -0.000000
  0O   2py       -0.000000  0.000000 -0.000000  0.000000  0.000000 -0.261597
  0O   3pz        0.000000 -0.000000 -0.000000  0.000000  0.000000  1.937800
  0O   3px       -0.000000  0.000000 -0.000000  0.000000 -0.873454  0.000000
  0O   3py       -0.000000 -0.000000  0.000000 -0.000000 -0.000000  0.769699
  0O   1dz2      -0.000000 -0.007311 -0.000000 -0.000000  0.000000 -0.000000
  0O   1dxz      -0.000000 -0.000000 -0.018894 -0.015795  0.000000 -0.000000
  0O   1dyz       0.019017  0.000000 -0.000000  0.000000  0.000000 -0.000000
  0O   1dx2y2     0.000000  0.012664  0.000000  0.000000 -0.000000  0.000000
  0O   1dxy      -0.000000  0.000000  0.015795 -0.018894 -0.000000  0.000000
  0O   2dz2       0.000000 -0.031719  0.000000  0.000000 -0.000000  0.000000
  0O   2dxz      -0.000000  0.000000 -0.018725 -0.015654  0.000000 -0.000000
  0O   2dyz       0.001613 -0.000000  0.000000 -0.000000  0.000000  0.000000
  0O   2dx2y2    -0.000000  0.054938 -0.000000 -0.000000  0.000000 -0.000000
  0O   2dxy       0.000000 -0.000000  0.015654 -0.018725  0.000000  0.000000
  0O   1f0        0.000000 -0.000000  0.000000  0.000000 -0.000000  0.001007
  0O   1f+1       0.000000 -0.000000 -0.000000  0.000000  0.002916 -0.000000
  0O   1f-1      -0.000000  0.000000 -0.000000 -0.000000  0.000000  0.000066
  0O   1f+2      -0.000000  0.000000 -0.000000 -0.000000 -0.000000 -0.000991
  0O   1f-2      -0.000000  0.000000 -0.000000 -0.000000  0.000000  0.000000
  0O   1f+3       0.000000 -0.000000 -0.000000  0.000000  0.003765 -0.000000
  0O   1f-3       0.000000 -0.000000 -0.000000  0.000000 -0.000000  0.000558
  0O   6s         0.000000  9.010579  0.000000 -0.000000 -0.000000 -0.000000
  0O   4pz        0.000000 -0.000000  0.000000 -0.000000  0.000000  0.131462
  0O   4px        0.000000 -0.000000 -0.000000  0.000000 -2.053596  0.000000
  0O   4py       -0.000000 -0.000000 -0.000000 -0.000000 -0.000000  0.052217
  0O   3dz2      -0.000000 -0.943532 -0.000000  0.000000 -0.000000 -0.000000
  0O   3dxz      -0.000000 -0.000000 -1.436817 -1.201210  0.000000 -0.000000
  0O   3dyz       0.997742 -0.000000  0.000000 -0.000000  0.000000 -0.000000
  0O   3dx2y2    -0.000000  1.634246  0.000000 -0.000000  0.000000  0.000000
  0O   3dxy      -0.000000  0.000000  1.201210 -1.436817 -0.000000  0.000000
  1H   1s        -0.000000  0.113376 -0.000000  0.000000 -0.139989  0.000000
  1H   2s         0.000000  0.005788 -0.000000  0.000000 -1.191212  0.000000
  1H   3s        -0.000000 -6.352877  0.000000  0.000000  4.006038  0.000000
  1H   1pz       -0.000000 -0.000000 -0.027431 -0.022933  0.000000 -0.007434
  1H   1px       -0.000000  0.029252  0.000000 -0.000000 -0.016411 -0.000000
  1H   1py        0.000000 -0.000000  0.022933 -0.027431 -0.000000 -0.002953
  1H   2pz       -0.000000  0.000000  1.051372  0.878969 -0.000000 -0.766526
  1H   2px        0.000000  1.173838 -0.000000 -0.000000 -0.500781 -0.000000
  1H   2py        0.000000  0.000000 -0.878969  1.051372  0.000000 -0.304466
  2H   1s         0.000000  0.113376  0.000000  0.000000  0.139989 -0.000000
  2H   2s         0.000000  0.005788  0.000000 -0.000000  1.191212 -0.000000
  2H   3s         0.000000 -6.352877 -0.000000  0.000000 -4.006038  0.000000
  2H   1pz       -0.000000 -0.000000  0.027431  0.022933  0.000000 -0.007434
  2H   1px        0.000000 -0.029252  0.000000  0.000000 -0.016411  0.000000
  2H   1py        0.000000 -0.000000 -0.022933  0.027431  0.000000 -0.002953
  2H   2pz       -0.000000  0.000000 -1.051372 -0.878969  0.000000 -0.766526
  2H   2px        0.000000 -1.173838 -0.000000  0.000000 -0.500781  0.000000
  2H   2py        0.000000  0.000000  0.878969 -1.051372 -0.000000 -0.304466
                     24        25        26        27        28        29   
                   0.55343   0.67310   0.84242   0.97323   1.50007   1.50007
                   0.00000   0.00000   0.00000   0.00000   0.00000   0.00000
                  --------  --------  --------  --------  --------  --------
  0O   1s         0.000000 -0.037625 -0.000000  0.051025  0.000000  0.000000
  0O   2s         0.000000 -0.081682 -0.000000  0.107131  0.000000  0.000000
  0O   3s         0.000000 -0.010228  0.000000  0.140722 -0.000000 -0.000000
  0O   4s        -0.000000  1.251128  0.000000 -3.422119  0.000000  0.000000
  0O   5s         0.000000 -3.237045 -0.000000  8.382474 -0.000000 -0.000000
  0O   1pz       -0.112986  0.000000 -0.000000 -0.000000  0.000000 -0.000000
  0O   1px       -0.000000 -0.000000  0.247603  0.000000 -0.000000 -0.000000
  0O   1py        0.284456  0.000000  0.000000 -0.000000 -0.000000  0.000000
  0O   2pz       -0.261597  0.000000 -0.000000  0.000000 -0.000000  0.000000
  0O   2px       -0.000000 -0.000000  0.765005  0.000000 -0.000000  0.000000
  0O   2py        0.658598  0.000000  0.000000  0.000000  0.000000 -0.000000
  0O   3pz        0.769699 -0.000000  0.000000  0.000000  0.000000 -0.000000
  0O   3px        0.000000  0.000000 -5.458731 -0.000000  0.000000  0.000000
  0O   3py       -1.937800 -0.000000 -0.000000  0.000000 -0.000000  0.000000
  0O   1dz2       0.000000  0.002655 -0.000000  0.011238 -0.000000 -0.000000
  0O   1dxz      -0.000000  0.000000 -0.000000  0.000000  0.007589  0.010566
  0O   1dyz      -0.000000  0.000000  0.000000  0.000000  0.000000 -0.000000
  0O   1dx2y2    -0.000000 -0.004598  0.000000 -0.019465  0.000000  0.000000
  0O   1dxy       0.000000 -0.000000 -0.000000 -0.000000  0.010566 -0.007589
  0O   2dz2      -0.000000 -0.007843  0.000000 -0.031548 -0.000000 -0.000000
  0O   2dxz      -0.000000 -0.000000  0.000000  0.000000  0.479968  0.668256
  0O   2dyz       0.000000  0.000000 -0.000000  0.000000  0.000000 -0.000000
  0O   2dx2y2     0.000000  0.013584 -0.000000  0.054643  0.000000  0.000000
  0O   2dxy       0.000000  0.000000  0.000000 -0.000000  0.668256 -0.479968
  0O   1f0        0.000400  0.000000 -0.000000 -0.000000  0.000000 -0.000000
  0O   1f+1      -0.000000  0.000000  0.002028 -0.000000  0.000000 -0.000000
  0O   1f-1      -0.000167 -0.000000  0.000000  0.000000 -0.000000  0.000000
  0O   1f+2      -0.000394 -0.000000 -0.000000 -0.000000 -0.000000  0.000000
  0O   1f-2       0.000000 -0.000000  0.000000 -0.000000 -0.000000 -0.000000
  0O   1f+3      -0.000000  0.000000  0.002618 -0.000000  0.000000 -0.000000
  0O   1f-3      -0.001404 -0.000000  0.000000 -0.000000 -0.000000  0.000000
  0O   6s         0.000000 -0.565376 -0.000000  6.713336 -0.000000 -0.000000
  0O   4pz        0.052217  0.000000 -0.000000  0.000000  0.000000  0.000000
  0O   4px        0.000000  0.000000  0.133554  0.000000  0.000000 -0.000000
  0O   4py       -0.131462 -0.000000  0.000000 -0.000000  0.000000 -0.000000
  0O   3dz2      -0.000000 -1.155118  0.000000 -1.742225  0.000000  0.000000
  0O   3dxz      -0.000000 -0.000000 -0.000000  0.000000 -0.815684 -1.135670
  0O   3dyz      -0.000000  0.000000 -0.000000  0.000000 -0.000000  0.000000
  0O   3dx2y2     0.000000  2.000724 -0.000000  3.017622 -0.000000 -0.000000
  0O   3dxy       0.000000  0.000000 -0.000000 -0.000000 -1.135670  0.815684
  1H   1s         0.000000 -0.050390  0.002646 -0.001111  0.000000  0.000000
  1H   2s        -0.000000 -1.766789  1.472636 -2.268226 -0.000000 -0.000000
  1H   3s        -0.000000  1.859702  3.630683 -5.449577  0.000000  0.000000
  1H   1pz       -0.002953  0.000000  0.000000 -0.000000  0.263076  0.366278
  1H   1px        0.000000  0.037821 -0.029958  0.070042 -0.000000 -0.000000
  1H   1py        0.007434  0.000000 -0.000000  0.000000  0.366278 -0.263076
  1H   2pz       -0.304466  0.000000  0.000000 -0.000000  0.399505  0.556228
  1H   2px        0.000000 -1.538415 -1.898567  1.105640  0.000000 -0.000000
  1H   2py        0.766526  0.000000 -0.000000 -0.000000  0.556228 -0.399505
  2H   1s         0.000000 -0.050390 -0.002646 -0.001111  0.000000  0.000000
  2H   2s        -0.000000 -1.766789 -1.472636 -2.268226 -0.000000 -0.000000
  2H   3s        -0.000000  1.859702 -3.630683 -5.449577  0.000000  0.000000
  2H   1pz       -0.002953 -0.000000  0.000000 -0.000000 -0.263076 -0.366278
  2H   1px       -0.000000 -0.037821 -0.029958 -0.070042  0.000000  0.000000
  2H   1py        0.007434  0.000000 -0.000000  0.000000 -0.366278  0.263076
  2H   2pz       -0.304466  0.000000 -0.000000 -0.000000 -0.399505 -0.556228
  2H   2px       -0.000000  1.538415 -1.898567 -1.105640  0.000000  0.000000
  2H   2py        0.766526  0.000000 -0.000000 -0.000000 -0.556228  0.399505
                     30        31        32        33        34        35   
                   1.51084   1.54541   1.54541   1.55739   1.56293   1.96661
                   0.00000   0.00000   0.00000   0.00000   0.00000   0.00000
                  --------  --------  --------  --------  --------  --------
  0O   1s        -0.011704  0.000000 -0.000000 -0.000000  0.000000 -0.000000
  0O   2s        -0.028965  0.000000 -0.000000 -0.000000  0.000000 -0.000000
  0O   3s         0.072087 -0.000000  0.000000  0.000000 -0.000000  0.000000
  0O   4s        -0.108737 -0.000000 -0.000000 -0.000000  0.000000 -0.000000
  0O   5s         0.926965  0.000000 -0.000000 -0.000000 -0.000000 -0.000000
  0O   1pz       -0.000000 -0.034659 -0.144554  0.000000  0.000000  0.000000
  0O   1px        0.000000 -0.000000 -0.000000  0.000000 -0.000000  0.489380
  0O   1py       -0.000000  0.144554 -0.034659  0.000000 -0.000000 -0.000000
  0O   2pz        0.000000  0.038093  0.158872 -0.000000  0.000000 -0.000000
  0O   2px        0.000000 -0.000000 -0.000000 -0.000000  0.000000 -0.456969
  0O   2py        0.000000 -0.158872  0.038093  0.000000  0.000000  0.000000
  0O   3pz       -0.000000 -0.068608 -0.286142  0.000000 -0.000000 -0.000000
  0O   3px       -0.000000  0.000000  0.000000  0.000000 -0.000000  1.967147
  0O   3py       -0.000000  0.286142 -0.068608 -0.000000  0.000000  0.000000
  0O   1dz2       0.019606 -0.000000 -0.000000 -0.008682  0.000000 -0.000000
  0O   1dxz       0.000000 -0.000000 -0.000000  0.000000  0.000000  0.000000
  0O   1dyz       0.000000 -0.000000 -0.000000  0.000000  0.011570 -0.000000
  0O   1dx2y2    -0.033959  0.000000 -0.000000 -0.005013 -0.000000  0.000000
  0O   1dxy      -0.000000  0.000000  0.000000  0.000000  0.000000  0.000000
  0O   2dz2       0.331539 -0.000000 -0.000000 -0.946479  0.000000 -0.000000
  0O   2dxz       0.000000 -0.000000 -0.000000  0.000000  0.000000 -0.000000
  0O   2dyz      -0.000000 -0.000000 -0.000000  0.000000  1.091971 -0.000000
  0O   2dx2y2    -0.574242 -0.000000 -0.000000 -0.546450  0.000000  0.000000
  0O   2dxy      -0.000000  0.000000  0.000000 -0.000000 -0.000000 -0.000000
  0O   1f0       -0.000000 -0.006082 -0.025365  0.000000 -0.000000 -0.000000
  0O   1f+1      -0.000000  0.000000  0.000000 -0.000000 -0.000000  0.014345
  0O   1f-1       0.000000  0.010516 -0.002521  0.000000  0.000000 -0.000000
  0O   1f+2       0.000000  0.007900  0.032949 -0.000000  0.000000  0.000000
  0O   1f-2      -0.000000 -0.000000 -0.000000  0.000000  0.000000 -0.000000
  0O   1f+3      -0.000000  0.000000  0.000000 -0.000000 -0.000000  0.018519
  0O   1f-3       0.000000  0.040229 -0.009646 -0.000000  0.000000  0.000000
  0O   6s         2.807629  0.000000  0.000000 -0.000000 -0.000000 -0.000000
  0O   4pz       -0.000000  0.122093  0.509212 -0.000000  0.000000 -0.000000
  0O   4px        0.000000  0.000000 -0.000000  0.000000  0.000000  0.896167
  0O   4py       -0.000000 -0.509212  0.122093  0.000000  0.000000  0.000000
  0O   3dz2      -0.119022 -0.000000  0.000000  0.401715 -0.000000  0.000000
  0O   3dxz      -0.000000  0.000000  0.000000 -0.000000 -0.000000 -0.000000
  0O   3dyz      -0.000000  0.000000  0.000000 -0.000000 -0.465114  0.000000
  0O   3dx2y2     0.206152  0.000000  0.000000  0.231930 -0.000000 -0.000000
  0O   3dxy       0.000000 -0.000000 -0.000000  0.000000  0.000000 -0.000000
  1H   1s        -0.206721 -0.000000 -0.000000 -0.000000  0.000000 -0.561735
  1H   2s         0.860659 -0.000000 -0.000000  0.000000 -0.000000  0.484865
  1H   3s        -2.404011 -0.000000 -0.000000  0.000000  0.000000 -2.692720
  1H   1pz        0.000000  0.175239  0.730868 -0.000000  0.000000  0.000000
  1H   1px        0.395088 -0.000000  0.000000 -0.000000  0.000000  0.632908
  1H   1py       -0.000000 -0.730868  0.175239  0.000000 -0.000000  0.000000
  1H   2pz        0.000000 -0.089126 -0.371717  0.000000 -0.000000  0.000000
  1H   2px        0.492917  0.000000  0.000000 -0.000000 -0.000000  0.511539
  1H   2py       -0.000000  0.371717 -0.089126 -0.000000 -0.000000  0.000000
  2H   1s        -0.206721  0.000000 -0.000000 -0.000000 -0.000000  0.561735
  2H   2s         0.860659 -0.000000  0.000000  0.000000 -0.000000 -0.484865
  2H   3s        -2.404011  0.000000  0.000000  0.000000  0.000000  2.692720
  2H   1pz       -0.000000  0.175239  0.730868 -0.000000  0.000000 -0.000000
  2H   1px       -0.395088  0.000000 -0.000000  0.000000 -0.000000  0.632908
  2H   1py        0.000000 -0.730868  0.175239  0.000000 -0.000000 -0.000000
  2H   2pz       -0.000000 -0.089126 -0.371717  0.000000 -0.000000  0.000000
  2H   2px       -0.492917  0.000000  0.000000  0.000000 -0.000000  0.511539
  2H   2py        0.000000  0.371717 -0.089126 -0.000000 -0.000000 -0.000000
                     36        37        38        39        40        41   
                   2.02797   2.02797   2.51191   2.51191   2.63870   2.68706
                   0.00000   0.00000   0.00000   0.00000   0.00000   0.00000
                  --------  --------  --------  --------  --------  --------
  0O   1s         0.000000  0.000000  0.000000  0.000000  0.035161 -0.000000
  0O   2s         0.000000  0.000000  0.000000  0.000000  0.131806 -0.000000
  0O   3s        -0.000000 -0.000000 -0.000000 -0.000000 -1.106766  0.000000
  0O   4s         0.000000  0.000000  0.000000  0.000000  2.114448 -0.000000
  0O   5s         0.000000  0.000000 -0.000000 -0.000000 -1.727718  0.000000
  0O   1pz       -0.000000 -0.000000  0.410596  1.122880 -0.000000 -0.000000
  0O   1px        0.000000 -0.000000 -0.000000 -0.000000 -0.000000  0.406621
  0O   1py        0.000000  0.000000  1.122880 -0.410596 -0.000000  0.000000
  0O   2pz        0.000000  0.000000 -0.629830 -1.722432  0.000000  0.000000
  0O   2px       -0.000000  0.000000 -0.000000  0.000000 -0.000000 -0.011051
  0O   2py       -0.000000 -0.000000 -1.722432  0.629830  0.000000 -0.000000
  0O   3pz        0.000000  0.000000  0.430885  1.178366 -0.000000 -0.000000
  0O   3px        0.000000 -0.000000 -0.000000  0.000000 -0.000000  2.652435
  0O   3py       -0.000000 -0.000000  1.178366 -0.430885 -0.000000  0.000000
  0O   1dz2       0.000000  0.000000 -0.000000  0.000000  0.042428  0.000000
  0O   1dxz      -0.005643 -0.017363  0.000000 -0.000000  0.000000 -0.000000
  0O   1dyz       0.000000  0.000000  0.000000 -0.000000 -0.000000 -0.000000
  0O   1dx2y2    -0.000000 -0.000000  0.000000 -0.000000 -0.073487 -0.000000
  0O   1dxy       0.017363 -0.005643 -0.000000  0.000000 -0.000000  0.000000
  0O   2dz2       0.000000  0.000000  0.000000  0.000000  0.076100 -0.000000
  0O   2dxz      -0.264228 -0.813068  0.000000 -0.000000  0.000000 -0.000000
  0O   2dyz       0.000000  0.000000  0.000000 -0.000000 -0.000000 -0.000000
  0O   2dx2y2    -0.000000 -0.000000 -0.000000 -0.000000 -0.131808  0.000000
  0O   2dxy       0.813068 -0.264228 -0.000000  0.000000 -0.000000  0.000000
  0O   1f0        0.000000 -0.000000 -0.003528 -0.009647  0.000000 -0.000000
  0O   1f+1       0.000000 -0.000000  0.000000 -0.000000  0.000000 -0.074061
  0O   1f-1      -0.000000 -0.000000 -0.001840  0.000673 -0.000000  0.000000
  0O   1f+2       0.000000  0.000000  0.003584  0.009800 -0.000000  0.000000
  0O   1f-2      -0.000000 -0.000000 -0.000000  0.000000 -0.000000  0.000000
  0O   1f+3       0.000000 -0.000000  0.000000 -0.000000  0.000000 -0.095612
  0O   1f-3       0.000000  0.000000 -0.013628  0.004983  0.000000  0.000000
  0O   6s         0.000000  0.000000 -0.000000 -0.000000 -1.489847 -0.000000
  0O   4pz        0.000000  0.000000  0.004046  0.011066  0.000000  0.000000
  0O   4px        0.000000 -0.000000  0.000000 -0.000000  0.000000 -0.729367
  0O   4py       -0.000000  0.000000  0.011066 -0.004046 -0.000000 -0.000000
  0O   3dz2      -0.000000 -0.000000  0.000000 -0.000000 -0.528657 -0.000000
  0O   3dxz      -0.030399 -0.093543  0.000000 -0.000000  0.000000  0.000000
  0O   3dyz      -0.000000 -0.000000 -0.000000  0.000000  0.000000  0.000000
  0O   3dx2y2     0.000000  0.000000 -0.000000  0.000000  0.915661  0.000000
  0O   3dxy       0.093543 -0.030399 -0.000000  0.000000  0.000000 -0.000000
  1H   1s        -0.000000  0.000000  0.000000  0.000000  1.129755  1.048047
  1H   2s         0.000000 -0.000000  0.000000 -0.000000 -2.401118 -2.621156
  1H   3s        -0.000000  0.000000  0.000000  0.000000  2.061692  0.001107
  1H   1pz        0.226664  0.697478  0.046576  0.127374 -0.000000  0.000000
  1H   1px        0.000000 -0.000000 -0.000000 -0.000000  0.156326  0.603574
  1H   1py       -0.697478  0.226664  0.127374 -0.046576 -0.000000  0.000000
  1H   2pz       -0.020348 -0.062615 -0.110352 -0.301785  0.000000 -0.000000
  1H   2px        0.000000 -0.000000 -0.000000 -0.000000 -0.826353  0.629113
  1H   2py        0.062615 -0.020348 -0.301785  0.110352  0.000000  0.000000
  2H   1s         0.000000 -0.000000  0.000000  0.000000  1.129755 -1.048047
  2H   2s        -0.000000  0.000000  0.000000 -0.000000 -2.401118  2.621156
  2H   3s         0.000000 -0.000000  0.000000  0.000000  2.061692 -0.001107
  2H   1pz       -0.226664 -0.697478  0.046576  0.127374 -0.000000  0.000000
  2H   1px        0.000000 -0.000000  0.000000  0.000000 -0.156326  0.603574
  2H   1py        0.697478 -0.226664  0.127374 -0.046576 -0.000000 -0.000000
  2H   2pz        0.020348  0.062615 -0.110352 -0.301785  0.000000  0.000000
  2H   2px        0.000000 -0.000000  0.000000  0.000000  0.826353  0.629113
  2H   2py       -0.062615  0.020348 -0.301785  0.110352  0.000000 -0.000000
                     42        43        44        45        46        47   
                   2.93287   3.24791   3.58353   4.90329   4.90341   4.92845
                   0.00000   0.00000   0.00000   0.00000   0.00000   0.00000
                  --------  --------  --------  --------  --------  --------
  0O   1s        -0.102873  0.000000 -0.080443 -0.000000 -0.000000  0.000000
  0O   2s        -0.335390  0.000000 -0.292942 -0.000000 -0.000000  0.000000
  0O   3s         2.315868 -0.000000  2.574958  0.000000  0.000000 -0.000000
  0O   4s        -4.904780 -0.000000 -3.837404 -0.000000 -0.000000  0.000000
  0O   5s         8.068647  0.000000  0.150303  0.000000  0.000000 -0.000000
  0O   1pz        0.000000  0.000000 -0.000000 -0.000000 -0.000000 -0.002281
  0O   1px       -0.000000  1.111476  0.000000  0.000000  0.000000  0.000000
  0O   1py        0.000000 -0.000000  0.000000  0.000000  0.000000 -0.000000
  0O   2pz       -0.000000 -0.000000  0.000000  0.000000  0.000000  0.003355
  0O   2px        0.000000 -2.766760 -0.000000 -0.000000 -0.000000 -0.000000
  0O   2py       -0.000000  0.000000  0.000000 -0.000000 -0.000000  0.000000
  0O   3pz        0.000000  0.000000 -0.000000 -0.000000 -0.000000 -0.001344
  0O   3px       -0.000000  1.326827  0.000000  0.000000  0.000000  0.000000
  0O   3py        0.000000 -0.000000 -0.000000  0.000000  0.000000 -0.000000
  0O   1dz2       0.021253 -0.000000  0.036578  0.000000  0.000000  0.000000
  0O   1dxz      -0.000000  0.000000 -0.000000  0.000000  0.000000  0.000000
  0O   1dyz       0.000000  0.000000  0.000000 -0.000000 -0.000000 -0.000000
  0O   1dx2y2    -0.036811  0.000000 -0.063355  0.000000  0.000000  0.000000
  0O   1dxy       0.000000  0.000000  0.000000 -0.000000 -0.000000 -0.000000
  0O   2dz2      -0.589060 -0.000000  0.861781 -0.000000 -0.000000 -0.000000
  0O   2dxz      -0.000000  0.000000 -0.000000  0.000000  0.000000  0.000000
  0O   2dyz      -0.000000  0.000000  0.000000 -0.000000 -0.000000 -0.000000
  0O   2dx2y2     1.020282  0.000000 -1.492648  0.000000  0.000000  0.000000
  0O   2dxy       0.000000  0.000000  0.000000 -0.000000 -0.000000 -0.000000
  0O   1f0       -0.000000 -0.000000 -0.000000 -0.000000 -0.000000 -0.794710
  0O   1f+1       0.000000 -0.060506 -0.000000 -0.790569  0.000000 -0.000000
  0O   1f-1       0.000000 -0.000000  0.000000  0.000000  0.000000  0.000000
  0O   1f+2       0.000000  0.000000 -0.000000  0.000000  0.000000 -0.606988
  0O   1f-2      -0.000000 -0.000000  0.000000  0.000000  1.000000  0.000000
  0O   1f+3       0.000000 -0.078112 -0.000000  0.612372 -0.000000 -0.000000
  0O   1f-3      -0.000000 -0.000000  0.000000  0.000000  0.000000 -0.000000
  0O   6s         3.241627  0.000000  0.107826  0.000000  0.000000 -0.000000
  0O   4pz        0.000000  0.000000 -0.000000 -0.000000 -0.000000 -0.000489
  0O   4px        0.000000  0.319143 -0.000000 -0.000000 -0.000000 -0.000000
  0O   4py       -0.000000  0.000000  0.000000  0.000000  0.000000 -0.000000
  0O   3dz2      -1.112358 -0.000000  0.409801 -0.000000 -0.000000  0.000000
  0O   3dxz       0.000000 -0.000000  0.000000 -0.000000 -0.000000 -0.000000
  0O   3dyz       0.000000 -0.000000 -0.000000  0.000000  0.000000  0.000000
  0O   3dx2y2     1.926660  0.000000 -0.709797  0.000000  0.000000 -0.000000
  0O   3dxy      -0.000000  0.000000 -0.000000  0.000000  0.000000  0.000000
  1H   1s         0.441841 -0.108575  0.098812  0.000000  0.000000 -0.000000
  1H   2s        -2.976064  1.006306  2.076101 -0.000000 -0.000000  0.000000
  1H   3s        -2.860991 -1.593764 -0.578572 -0.000000 -0.000000  0.000000
  1H   1pz        0.000000  0.000000 -0.000000  0.000000  0.000000 -0.001589
  1H   1px        0.863868 -0.855318 -1.317766  0.000000  0.000000  0.000000
  1H   1py        0.000000 -0.000000  0.000000 -0.000000 -0.000000 -0.000000
  1H   2pz       -0.000000  0.000000  0.000000  0.000000  0.000000  0.000762
  1H   2px        0.676708  0.454621  0.362365  0.000000  0.000000 -0.000000
  1H   2py       -0.000000 -0.000000  0.000000 -0.000000 -0.000000  0.000000
  2H   1s         0.441841  0.108575  0.098812  0.000000  0.000000 -0.000000
  2H   2s        -2.976064 -1.006306  2.076101 -0.000000 -0.000000 -0.000000
  2H   3s        -2.860991  1.593764 -0.578572 -0.000000 -0.000000  0.000000
  2H   1pz        0.000000  0.000000 -0.000000 -0.000000 -0.000000 -0.001589
  2H   1px       -0.863868 -0.855318  1.317766 -0.000000 -0.000000 -0.000000
  2H   1py        0.000000  0.000000  0.000000  0.000000  0.000000 -0.000000
  2H   2pz       -0.000000 -0.000000  0.000000  0.000000  0.000000  0.000762
  2H   2px       -0.676708  0.454621 -0.362365  0.000000  0.000000  0.000000
  2H   2py       -0.000000  0.000000 -0.000000 -0.000000 -0.000000  0.000000
                     48        49        50        51        52        53   
                   4.92845   5.13662   5.13662   5.86210   6.09469   6.09910
                   0.00000   0.00000   0.00000   0.00000   0.00000   0.00000
                  --------  --------  --------  --------  --------  --------
  0O   1s         0.000000  0.000000  0.000000  0.000000  0.000000 -0.000000
  0O   2s         0.000000  0.000000  0.000000  0.000000  0.000000 -0.000000
  0O   3s        -0.000000 -0.000000 -0.000000 -0.000000 -0.000000  0.000000
  0O   4s         0.000000  0.000000  0.000000  0.000000  0.000000 -0.000000
  0O   5s        -0.000000 -0.000000 -0.000000 -0.000000 -0.000000  0.000000
  0O   1pz        0.000000 -0.023061 -0.015597 -0.000000  0.000000 -0.000000
  0O   1px        0.000000 -0.000000 -0.000000 -0.360705 -0.000000 -0.000000
  0O   1py       -0.002281  0.015597 -0.023061  0.000000 -0.000000  0.000000
  0O   2pz       -0.000000  0.032361  0.021888  0.000000 -0.000000  0.000000
  0O   2px       -0.000000  0.000000  0.000000  1.112826  0.000000  0.000000
  0O   2py        0.003355 -0.021888  0.032361 -0.000000  0.000000 -0.000000
  0O   3pz        0.000000  0.053231  0.036003 -0.000000  0.000000 -0.000000
  0O   3px        0.000000 -0.000000 -0.000000  0.970936  0.000000  0.000000
  0O   3py       -0.001344 -0.036003  0.053231  0.000000 -0.000000  0.000000
  0O   1dz2       0.000000  0.000000  0.000000  0.000000  0.000000 -1.024030
  0O   1dxz       0.000000  0.000000  0.000000 -0.000000 -0.000000 -0.000000
  0O   1dyz      -0.000000 -0.000000 -0.000000 -0.000000  1.182437  0.000000
  0O   1dx2y2    -0.000000 -0.000000 -0.000000 -0.000000  0.000000 -0.591224
  0O   1dxy      -0.000000 -0.000000  0.000000  0.000000 -0.000000 -0.000000
  0O   2dz2       0.000000  0.000000  0.000000 -0.000000 -0.000000  0.603271
  0O   2dxz       0.000000  0.000000  0.000000  0.000000  0.000000  0.000000
  0O   2dyz      -0.000000  0.000000  0.000000  0.000000 -0.698050 -0.000000
  0O   2dx2y2     0.000000 -0.000000 -0.000000 -0.000000 -0.000000  0.348299
  0O   2dxy      -0.000000 -0.000000  0.000000 -0.000000  0.000000  0.000000
  0O   1f0        0.000000 -0.516986 -0.349667  0.000000 -0.000000 -0.000000
  0O   1f+1      -0.000000 -0.000000  0.000000 -0.701840 -0.000000 -0.000000
  0O   1f-1       0.966525  0.147545 -0.218147 -0.000000  0.000000  0.000000
  0O   1f+2       0.000000  0.676392  0.457482 -0.000000  0.000000  0.000000
  0O   1f-2      -0.000000 -0.000000 -0.000000 -0.000000  0.000000  0.000000
  0O   1f+3      -0.000000 -0.000000  0.000000 -0.906072 -0.000000 -0.000000
  0O   1f-3      -0.256571  0.556585 -0.822917 -0.000000  0.000000  0.000000
  0O   6s        -0.000000 -0.000000 -0.000000 -0.000000 -0.000000 -0.000000
  0O   4pz        0.000000 -0.065857 -0.044543 -0.000000  0.000000 -0.000000
  0O   4px       -0.000000 -0.000000  0.000000 -0.056218 -0.000000 -0.000000
  0O   4py       -0.000489  0.044543 -0.065857 -0.000000 -0.000000  0.000000
  0O   3dz2       0.000000  0.000000  0.000000  0.000000  0.000000 -0.161011
  0O   3dxz      -0.000000 -0.000000 -0.000000  0.000000  0.000000 -0.000000
  0O   3dyz       0.000000  0.000000  0.000000  0.000000  0.186700  0.000000
  0O   3dx2y2    -0.000000 -0.000000 -0.000000 -0.000000  0.000000 -0.092960
  0O   3dxy       0.000000  0.000000 -0.000000 -0.000000 -0.000000 -0.000000
  1H   1s        -0.000000 -0.000000 -0.000000 -0.164084 -0.000000 -0.000000
  1H   2s         0.000000  0.000000  0.000000 -0.852717 -0.000000  0.000000
  1H   3s         0.000000  0.000000  0.000000 -0.356356  0.000000  0.000000
  1H   1pz        0.000000 -0.181336 -0.122648 -0.000000 -0.000000 -0.000000
  1H   1px       -0.000000 -0.000000 -0.000000  0.673316  0.000000 -0.000000
  1H   1py       -0.001589  0.122648 -0.181336  0.000000 -0.000000 -0.000000
  1H   2pz       -0.000000  0.047042  0.031817 -0.000000 -0.000000  0.000000
  1H   2px       -0.000000 -0.000000 -0.000000  0.226282 -0.000000  0.000000
  1H   2py        0.000762 -0.031817  0.047042  0.000000  0.000000 -0.000000
  2H   1s         0.000000 -0.000000 -0.000000  0.164084  0.000000  0.000000
  2H   2s         0.000000  0.000000  0.000000  0.852717  0.000000  0.000000
  2H   3s         0.000000  0.000000  0.000000  0.356356  0.000000  0.000000
  2H   1pz        0.000000 -0.181336 -0.122648  0.000000 -0.000000 -0.000000
  2H   1px       -0.000000  0.000000  0.000000  0.673316  0.000000  0.000000
  2H   1py       -0.001589  0.122648 -0.181336 -0.000000  0.000000  0.000000
  2H   2pz       -0.000000  0.047042  0.031817  0.000000 -0.000000  0.000000
  2H   2px        0.000000  0.000000  0.000000  0.226282  0.000000 -0.000000
  2H   2py        0.000762 -0.031817  0.047042 -0.000000  0.000000 -0.000000
                     54        55        56        57   
                   6.22245   6.22245   6.88154  43.04038
                   0.00000   0.00000   0.00000   0.00000
                  --------  --------  --------  --------
  0O   1s         0.000000 -0.000000 -0.016207 -1.393768
  0O   2s         0.000000 -0.000000 -0.049003  1.718826
  0O   3s        -0.000000  0.000000  0.573270 -1.707042
  0O   4s         0.000000 -0.000000 -0.467074  2.024349
  0O   5s        -0.000000  0.000000 -1.740127 -1.599676
  0O   1pz       -0.000000 -0.000000 -0.000000 -0.000000
  0O   1px        0.000000  0.000000  0.000000 -0.000000
  0O   1py        0.000000 -0.000000 -0.000000 -0.000000
  0O   2pz        0.000000  0.000000  0.000000  0.000000
  0O   2px       -0.000000 -0.000000 -0.000000  0.000000
[...]
   => RI-J derivative integrals                    ... done (     0.1 sec)
   => RI-J response operators                      ... done (     0.0 sec)
   => Chain of spheres derivative integrals        ... done (     0.4 sec)
   => Chain of spheres response operator           ... done (     0.2 sec)
   => XC derivative integrals                      ... done (     0.9 sec)
   => XC response operators                        ... done (     0.2 sec)
   => Completing and storing right hand sides      ... done (     0.0 sec)
   => Total time for right hand sides =   1.7 sec

  geometrical perturbations done (  1.7 sec)

Property integrals calculated in   1.7 sec

Maximum memory used throughout the entire PROPINT-calculation: 10.3 MB

-------------------------   --------------------
FINAL SINGLE POINT ENERGY       -76.382297978808
-------------------------   --------------------

                                *** OPTIMIZATION RUN DONE ***

------------------------------------------------------------------------------
                            ORCA SCF RESPONSE CALCULATION
------------------------------------------------------------------------------

GBWName                                 ... h2o.gbw
Number of atoms                         ...      3
Number of basis functions               ...     58
Max core memory                         ...   2000 MB

Electric field perturbation             ...  NO
Quadrupolar field perturbation          ...  NO
Magnetic field perturbation (no GIAO)   ...  NO
Magnetic field perturbation (with GIAO) ...  NO
Linear momentum (velocity) perturbation ...  NO
Spin-orbit coupling perturbation        ...  NO
Choice of electric origin               ... Center of mass
Position of electric origin             ...    -0.000000     0.000000    -0.000000
Choice of magnetic origin               ... GIAO
Position of magnetic origin             ...     0.000000     0.000000     0.000000
Nuclear geometric perturbations         ... YES (   9 perturbations)
Nucleus-orbit perturbations             ...  NO (   0 perturbations)
Spin-dipole/Fermi contact perturbations ...  NO (   0 perturbations)

Total number of real perturbations      ...      9
Total number of imaginary perturbations ...      0
Total number of triplet perturbations   ...      0
Total number of SOC perturbations       ...      0


                                **********************
                                * REAL PERTURBATIONS *
                                **********************



-------------------
SHARK CP-SCF DRIVER
-------------------

Dimension of the orbital basis          ...     58
Dimension of the CPSCF-problem          ...    265
Number of operators                     ...      1
Max. number of iterations               ...    128
Convergence Tolerance                   ... 1.0e-04
Number of perturbations                 ...      9
Perturbation type                       ... REAL

----------------------------
POPLE LINEAR EQUATION SOLVER
----------------------------

  ITERATION   0:   ||err||_max =   2.2176e-01 (   0.1 sec   0/  9 done)
  ITERATION   1:   ||err||_max =   1.6487e-02 (   0.1 sec   0/  9 done)
  ITERATION   2:   ||err||_max =   2.0281e-03 (   0.1 sec   0/  9 done)
  ITERATION   3:   ||err||_max =   1.4953e-04 (   0.1 sec   7/  9 done)
  ITERATION   4:   ||err||_max =   1.3064e-05 (   0.1 sec   9/  9 done)

CP-SCF equations solved in   0.5 sec
Response densities calculated in   0.0 sec

Maximum memory used throughout the entire SCFRESP-calculation: 8.0 MB

------------------------------------------------------------------------------
                              ORCA PROPERTY CALCULATIONS
------------------------------------------------------------------------------

GBWName                                 ... h2o.gbw
Number of atoms                         ...      3
Number of basis functions               ...     58
Max core memory                         ...   2000 MB

Electric properties:
Dipole moment                           ... YES
Quadrupole moment                       ...  NO
Static polarizability (Dipole/Dipole)   ...  NO
Static polarizability (Dipole/Quad.)    ...  NO
Static polarizability (Quad./Quad.)     ...  NO
Static polarizability (Velocity)        ...  NO

Atomic electric properties:
Dipole moment                           ...  NO
Quadrupole moment                       ...  NO
Static polarizability                   ...  NO

Choice of electric origin               ... Center of mass
Position of electric origin             ...    -0.000000     0.000000    -0.000000

General magnetic properties:
Magnetizability                         ...  NO

EPR properties:
g-Tensor (aka g-matrix)                 ...  NO
Zero-Field splitting spin-orbit         ...  NO
Zero-field splitting spin-spin          ...  NO
Hyperfine couplings                     ...  NO (   0 nuclei)
Quadrupole couplings                    ...  NO (   0 nuclei)
Contact density                         ...  NO (   0 nuclei)

NMR properties:
Chemical shifts                         ...  NO (   0 nuclei)
Spin-rotation constants                 ...  NO (   0 nuclei)
Spin-spin couplings                     ...  NO (   0 nuclei,    0 pairs)

Choice of magnetic origin               ... GIAO
Position of magnetic origin             ...     0.000000     0.000000     0.000000

Properties with geometric perturbations:
SCF Hessian                             ... YES
IR spectrum                             ... YES
VCD spectrum                            ...  NO
X-ray spectroscopy properties:
SCF XES/XAS/RIXS spectra                ...  NO


-------------
DIPOLE MOMENT
-------------

Method             : SCF
Type of density    : Electron Density
Multiplicity       :   1
Irrep              :   0
Energy             :   -76.3822979788078413 Eh
Relativity type    : 
Basis              : AO
                                X                 Y                 Z
Electronic contribution:      0.000000263       0.000000003       0.000000004
Nuclear contribution   :      0.000000087      -0.000000019       0.000000030
                        -----------------------------------------
Total Dipole Moment    :      0.000000350      -0.000000016       0.000000034
                        -----------------------------------------
Magnitude (a.u.)       :      0.000000352
Magnitude (Debye)      :      0.000000895



--------------------
Rotational spectrum 
--------------------
 
Rotational constants in cm-1:             0.000000             9.501365             9.501365 
Rotational constants in MHz :             0.000000        284843.745897        284843.745897 

Dipole components along the rotational axes: 
x,y,z [a.u.] :     0.000000     0.000000    -0.000000 
x,y,z [Debye]:     0.000001     0.000000    -0.000000 

 

Dipole moment calculation done in   0.0 sec 

-----------
SCF HESSIAN
-----------

Occupied/Occupied contributions to the Hessian:
   => Occupied/Occupied contributions              ... done (  0.0 sec)
Perturbed density contributions to the Hessian:
   => Perturbed density contributions              ... done (  0.0 sec)
Explicit contributions to the Hessian:
   => Nuclear repulsion Hessian                    ... done (  0.0 sec)
   => HCore and overlap Hessian                    ... done (  0.0 sec)
   => RI-J Hessian                                 ... done (  0.1 sec)
   => COSX Hessian                                 ... done ( 10.7 sec)
   => XC-Hessian                                   ... done (  0.7 sec)
   => Explicit contributions done
Dipole derivatives                                 ... done (  0.0 sec)
Mass weighting the Hessian           ... done
Calculating normal modes             ... done
Scaling frequencies                  ... done

-----------------------
VIBRATIONAL FREQUENCIES
-----------------------

Scaling factor for frequencies =  1.000000000  (already applied!)

     0:       0.00 cm**-1
     1:       0.00 cm**-1
     2:       0.00 cm**-1
     3:       0.00 cm**-1
     4:       0.00 cm**-1
     5:   -1618.85 cm**-1  ***imaginary mode***
     6:   -1618.85 cm**-1  ***imaginary mode***
     7:    4000.96 cm**-1
     8:    4393.10 cm**-1


------------
NORMAL MODES
------------

These modes are the Cartesian displacements weighted by the diagonal matrix
M(i,i)=1/sqrt(m[i]) where m[i] is the mass of the displaced atom
Thus, these vectors are normalized but *not* orthogonal

                  0          1          2          3          4          5    
      0       0.000000   0.000000   0.000000   0.000000   0.000000  -0.000000
      1       0.000000   0.000000   0.000000   0.000000   0.000000  -0.013776
      2       0.000000   0.000000   0.000000   0.000000   0.000000   0.087674
      3       0.000000   0.000000   0.000000   0.000000   0.000000   0.000000
      4       0.000000   0.000000   0.000000   0.000000   0.000000   0.109325
      5       0.000000   0.000000   0.000000   0.000000   0.000000  -0.695780
      6       0.000000   0.000000   0.000000   0.000000   0.000000  -0.000000
      7       0.000000   0.000000   0.000000   0.000000   0.000000   0.109325
      8       0.000000   0.000000   0.000000   0.000000   0.000000  -0.695780
                  6          7          8    
      0      -0.000000   0.000000  -0.088749
      1      -0.087674   0.000000   0.000000
      2      -0.013776   0.000000  -0.000000
      3      -0.000000  -0.707108   0.704315
      4       0.695780  -0.000000  -0.000000
      5       0.109325  -0.000000   0.000000
      6       0.000000   0.707105   0.704318
      7       0.695780  -0.000000   0.000000
      8       0.109325  -0.000000  -0.000000


-----------
IR SPECTRUM
-----------

 Mode   freq       eps      Int      T**2         TX        TY        TZ
       cm**-1   L/(mol*cm) km/mol    a.u.
----------------------------------------------------------------------------
  7:   4000.96   0.000000    0.00  0.000000  (-0.000000 -0.000000 -0.000000)
  8:   4393.10   0.123716  625.21  0.008788  ( 0.093745 -0.000000  0.000000)

* The epsilon (eps) is given for a Dirac delta lineshape.
** The dipole moment derivative (T) already includes vibrational overlap.

The first frequency considered to be a vibration is 7
The total number of vibrations considered is 2


--------------------------
THERMOCHEMISTRY AT 298.15K
--------------------------

Temperature         ...   298.15 K
Pressure            ...     1.00 atm
Total Mass          ...    18.02 AMU
Quasi RRHO          ...     True
Cut-Off Frequency   ...     1.00 cm^-1
The molecule is recognized as being linear

Throughout the following assumptions are being made:
  (1) The electronic state is orbitally nondegenerate
  (2) There are no thermally accessible electronically excited states
  (3) Hindered rotations indicated by low frequency modes are not
      treated as such but are treated as vibrations and this may
      cause some error
  (4) All equations used are the standard statistical mechanics
      equations for an ideal gas
  (5) All vibrations are strictly harmonic

freq.    4000.96  E(vib)   ...       0.00 
freq.    4393.10  E(vib)   ...       0.00 

------------
INNER ENERGY
------------

The inner energy is: U= E(el) + E(ZPE) + E(vib) + E(rot) + E(trans)
    E(el)   - is the total energy from the electronic structure calculation
              = E(kin-el) + E(nuc-el) + E(el-el) + E(nuc-nuc)
    E(ZPE)  - the the zero temperature vibrational energy from the frequency calculation
    E(vib)  - the the finite temperature correction to E(ZPE) due to population
              of excited vibrational states
    E(rot)  - is the rotational thermal energy
    E(trans)- is the translational thermal energy

Summary of contributions to the inner energy U:
Electronic energy                ...    -76.38229798 Eh
Zero point energy                ...      0.01912308 Eh      12.00 kcal/mol
Thermal vibrational correction   ...      0.00000000 Eh       0.00 kcal/mol
Thermal rotational correction    ...      0.00094418 Eh       0.59 kcal/mol
Thermal translational correction ...      0.00141627 Eh       0.89 kcal/mol
-----------------------------------------------------------------------
Total thermal energy                    -76.36081445 Eh


Summary of corrections to the electronic energy:
(perhaps to be used in another calculation)
Total thermal correction                  0.00236045 Eh       1.48 kcal/mol
Non-thermal (ZPE) correction              0.01912308 Eh      12.00 kcal/mol
-----------------------------------------------------------------------
Total correction                          0.02148353 Eh      13.48 kcal/mol


--------
ENTHALPY
--------

The enthalpy is H = U + kB*T
                kB is Boltzmann's constant
Total thermal energy              ...    -76.36081445 Eh 
Thermal Enthalpy correction       ...      0.00094421 Eh       0.59 kcal/mol
-----------------------------------------------------------------------
Total Enthalpy                    ...    -76.35987024 Eh


Note: Rotational entropy computed according to Herzberg 
Infrared and Raman Spectra, Chapter V,1, Van Nostrand Reinhold, 1945 
Point Group:  D(inf)h, Symmetry Number:   1  
Rotational constants in cm-1:     0.000000     9.501365     9.501365 

Vibrational entropy computed according to the QRRHO of S. Grimme
Chem.Eur.J. 2012 18 9955 using a reference frequency of 100.0 cm-1


-------
ENTROPY
-------

The entropy contributions are T*S = T*(S(el)+S(vib)+S(rot)+S(trans))
     S(el)   - electronic entropy
     S(vib)  - vibrational entropy
     S(rot)  - rotational entropy
     S(trans)- translational entropy
The entropies will be listed as multiplied by the temperature to get
units of energy

Electronic entropy                ...      0.00000000 Eh      0.00 kcal/mol
Vibrational entropy               ...     -0.00000000 Eh     -0.00 kcal/mol
Rotational entropy                ...      0.00385450 Eh      2.42 kcal/mol
Translational entropy             ...      0.01644380 Eh     10.32 kcal/mol
-----------------------------------------------------------------------
Final entropy term                ...      0.02029830 Eh     12.74 kcal/mol


-------------------
GIBBS FREE ENERGY
-------------------

The Gibbs free energy is G = H - T*S

Total enthalpy                    ...    -76.35987024 Eh 
Total entropy correction          ...     -0.02029830 Eh    -12.74 kcal/mol
-----------------------------------------------------------------------
Final Gibbs free energy         ...    -76.38016854 Eh

For completeness - the Gibbs free energy minus the electronic energy
G-E(el)                           ...      0.00212944 Eh      1.34 kcal/mol


Maximum memory used throughout the entire PROP-calculation: 12.0 MB

--------------------------------
SUGGESTED CITATIONS FOR THIS RUN
--------------------------------

Below you find a list of papers that are relevant to this ORCA run
We neither can nor want to force you to cite these papers, but we appreciate if you do
You receive ORCA, which is the product of decades of hard work by many enthusiastic individuals, for free
The only thing we kindly ask in return is that you cite our papers,
We deeply appreciate it, if you show your appreciation for ORCA by not just citing the generic ORCA reference.

Please note that relegating all ORCA citations to the supporting information does *not* help us.
SI sections are not indexed - citations you put there will not count into any citation statistics
But we need these citations in order to attract the funding resources that allow us to do what we are doing

Therefore, if you are a happy ORCA user, please consider citing a few of the papers listed below in the main body of your paper

In addition to the list printed below, the program has created the file h2o.bibtex that contains the list in bibtex format
You can import this file easily into all common literature databanks and citation aid programs


List of essential papers. We consider these as the minimum necessary citations

  1. Neese,F.
     Software update: the ORCA program system, version 5.0
     WIRES Comput. Molec. Sci., 2022 12(1)e1606
     doi.org/10.1002/wcms.1606

List of papers to cite with high priority. The work reported in these papers was absolutely
necessary for this run to complete.
Our perspective: the developers of density functionals and basis sets usually get cited in chemistry papers
Good! But without the algorithms to do something with them, the functionals or basis sets would not do anything.
Hence, in our opinion, the algorithm design and method developments papers are equally worthy of getting cited

  1. Neese,F.
     An improvement of the resolution of the identity approximation for the formation of the Coulomb matrix
     J. Comp. Chem., 2003 24(14)1740-1747
     doi.org/10.1002/jcc.10318
  2. Neese,F.; Wennmohs,F.; Hansen,A.; Becker,U.
     Efficient, approximate and parallel Hartree-Fock and hybrid DFT calculations. A 'chain-of-spheres' algorithm for the Hartree-Fock exchange
     Chem. Phys., 2009 356(1-3)98-109
     doi.org/10.1016/j.chemphys.2008.10.036
  3. Bykov,D.; Petrenko,T.; Izsak,R.; Kossmann,S.; Becker,U.; Valeev,E.; Neese,F.
     Efficient implementation of the analytic second derivatives of Hartree-Fock and hybrid DFT energies: a detailed analysis of different approximations
     Molec. Phys., 2015 113 1961-1977
     doi.org/10.1080/00268976.2015.1025114
  4. Helmich-Paris,B.; de Souza,B.; Neese,F.; Izsák,R.
     An improved chain of spheres for exchange algorithm
     J. Chem. Phys., 2021 155 104109
     doi.org/doi: 10.1063/5.0058766.
  5. Neese,F.
     The SHARK Integral Generation and Digestion System
     J. Comp. Chem., 2022  1-16
     doi.org/10.1002/jcc.26942

List of suggested additional citations. These are papers that are important in the 'surrounding' of 
of this run, or papers that preceded the highly important papers. If you like your results we are grateful for a citation.

  1. Izsak,R.; Neese,F.
     An overlap fitted chain of spheres exchange method
     J. Chem. Phys., 2011 135 144105
     doi.org/10.1063/1.3646921
  2. Izsak,R.; Hansen,A.; Neese,F.
     The resolution of identity and chain of spheres approximations for the LPNO-CCSD singles Fock term
     Molec. Phys., 2012 110 2413-2417
     doi.org/10.1080/00268976.2012.687466
  3. Neese,F.
     The ORCA program system
     WIRES Comput. Molec. Sci., 2012 2(1)73-78
     doi.org/10.1002/wcms.81
  4. Izsak,R.; Neese,F.; Klopper,W.
     Robust fitting techniques in the chain of spheres approximation to the Fock exchange: The role of the complementary space
     J. Chem. Phys., 2013 139 
     doi.org/10.1063/1.4819264
  5. Neese,F.
     Software update: the ORCA program system, version 4.0
     WIRES Comput. Molec. Sci., 2018 8(1)1-6
     doi.org/10.1002/wcms.1327
  6. Neese,F.; Wennmohs,F.; Becker,U.; Riplinger,C.
     The ORCA quantum chemistry program package
     J. Chem. Phys., 2020 152 Art. No. L224108
     doi.org/10.1063/5.0004608

List of optional additional citations

  1. Neese,F.
     Approximate second-order SCF convergence for spin unrestricted wavefunctions
     Chem. Phys. Lett., 2000 325(1-3)93-98
     doi.org/10.1016/s0009-2614(00)00662-x

Timings for individual modules:

Sum of individual times          ...       31.567 sec (=   0.526 min)
Startup calculation              ...        1.116 sec (=   0.019 min)   3.5 %
SCF iterations                   ...        9.192 sec (=   0.153 min)  29.1 %
Property integrals               ...        2.092 sec (=   0.035 min)   6.6 %
SCF Response                     ...        0.570 sec (=   0.009 min)   1.8 %
Property calculations            ...       11.518 sec (=   0.192 min)  36.5 %
SCF Gradient evaluation          ...        7.067 sec (=   0.118 min)  22.4 %
Geometry relaxation              ...        0.012 sec (=   0.000 min)   0.0 %
                             ****ORCA TERMINATED NORMALLY****
TOTAL RUN TIME: 0 days 0 hours 0 minutes 59 seconds 302 msec
