
                                 *****************
                                 * O   R   C   A *
                                 *****************

                                            #,                                       
                                            ###                                      
                                            ####                                     
                                            #####                                    
                                            ######                                   
                                           ########,                                 
                                     ,,################,,,,,                         
                               ,,#################################,,                 
                          ,,##########################################,,             
                       ,#########################################, ''#####,          
                    ,#############################################,,   '####,        
                  ,##################################################,,,,####,       
                ,###########''''           ''''###############################       
              ,#####''   ,,,,##########,,,,          '''####'''          '####       
            ,##' ,,,,###########################,,,                        '##       
           ' ,,###''''                  '''############,,,                           
         ,,##''                                '''############,,,,        ,,,,,,###''
      ,#''                                            '''#######################'''  
     '                                                          ''''####''''         
             ,#######,   #######,   ,#######,      ##                                
            ,#'     '#,  ##    ##  ,#'     '#,    #''#        ,####,   ,####,        
            ##       ##  ##   ,#'  ##            #'  '#       #'       #'  '#        
            ##       ##  #######   ##           ,######,      #####,   #    #        
            '#,     ,#'  ##    ##  '#,     ,#' ,#      #,     #,   #   #,  ,#        
             '#######'   ##     ##  '#######'  #'      '#     '####' # '####'        



                #########################################################
                #                        -***-                          #
                #          Department of theory and spectroscopy        #
                #                                                       #
                #                      Frank Neese                      #
                #                                                       #
                #     Directorship, Architecture, Infrastructure        #
                #                    SHARK, DRIVERS                     #
                #        Core code/Algorithms in most modules           #
                #                                                       #
                #        Max Planck Institute fuer Kohlenforschung      #
                #                Kaiser Wilhelm Platz 1                 #
                #                 D-45470 Muelheim/Ruhr                 #
                #                      Germany                          #
                #                                                       #
                #                  All rights reserved                  #
                #                        -***-                          #
                #########################################################


                         Program Version 6.0.1  -  RELEASE   -


 With contributions from (in alphabetic order):
[Max-Planck-Institut fuer Kohlenforschung]                               
  Daniel Aravena         : Magnetic Suceptibility                        
  Michael Atanasov       : Ab Initio Ligand Field Theory (pilot matlab implementation)
  Alexander A. Auer      : GIAO ZORA, VPT2 properties, NMR spectrum      
  Ute Becker             : All parallelization in ORCA, NUMFREQ, NUMCALC 
  Giovanni Bistoni       : ED, misc. LED, open-shell LED, HFLD           
  Martin Brehm           : Molecular dynamics                            
  Dmytro Bykov           : pre 5.0 version of the SCF Hessian            
  Marcos Casanova-Páez   : Triplet and SCS-CIS(D). UHF-(DLPNO)-IP/EA/STEOM-CCSD. UHF-CVS-IP/STEOM-CCSD   
  Vijay G. Chilkuri      : MRCI spin determinant printing, contributions to CSF-ICE 
  Pauline Colinet        : FMM embedding                                 
  Dipayan Datta          : RHF DLPNO-CCSD density                        
  Achintya Kumar Dutta   : EOM-CC, STEOM-CC                              
  Nicolas Foglia         : Exact transition moments, OPA infrastructure, MCD improvements    
  Dmitry Ganyushin       : Spin-Orbit,Spin-Spin,Magnetic field MRCI      
  Miquel Garcia-Rates    : C-PCM and meta-GGA Hessian, CCSD/C-PCM, Gaussian charge scheme 
  Tiago L. C. Gouveia    : GS-ROHF, GS-ROCIS                             
  Yang Guo               : DLPNO-NEVPT2, F12-NEVPT2, CIM, IAO-localization        
  Andreas Hansen         : Spin unrestricted coupled pair/coupled cluster methods 
  Ingolf Harden          : AUTO-CI MPn and infrastructure                
  Benjamin Helmich-Paris : MC-RPA, TRAH-(SCF,CASSCF), AVAS, COSX integrals, SCF dyn. polar. 
  Lee Huntington         : MR-EOM, pCC                                   
  Robert Izsak           : Overlap fitted RIJCOSX, COSX-SCS-MP3, EOM     
  Riya Kayal             : Wick's Theorem for AUTO-CI, AUTO-CI UHF-CCSDT 
  Emily Kempfer          : AUTO-CI, RHF CISDT and CCSDT                  
  Christian Kollmar      : KDIIS, OOCD, Brueckner-CCSD(T), CCSD density, CASPT2, CASPT2-K, improved NEVPT2 
  Axel Koslowski         : Symmetry handling                             
  Simone Kossmann        : meta-GGA functionals, TD-DFT gradient, OOMP2, (MP2 Hessian; deprecated post 5.0) 
  Lucas Lang             : DCDCAS                                        
  Marvin Lechner         : AUTO-CI (C++ implementation), FIC-MRCC        
  Spencer Leger          : CASSCF response                               
  Dagmar Lenk            : GEPOL surface, SMD, ORCA-2-JSON               
  Dimitrios Liakos       : Extrapolation schemes; Compound Job, initial MDCI parallelization 
  Dimitrios Manganas     : Further ROCIS development; embedding schemes. LFT, Crystal Embedding 
  Dimitrios Pantazis     : SARC Basis sets                               
  Anastasios Papadopoulos: AUTO-CI, single reference methods and gradients 
  Taras Petrenko         : pre 6.0 DFT Hessian and TD-DFT gradient, (ASA, deprecated), ECA, 1-Electron XAS/XES, NRVS 
  Peter Pinski           : DLPNO-MP2, DLPNO-MP2 Gradient                 
  Christoph Reimann      : Effective Core Potentials                     
  Marius Retegan         : Local ZFS, SOC                                
  Christoph Riplinger    : Optimizer, TS searches, QM/MM, DLPNO-CCSD(T), (RO)-DLPNO pert. Triples 
  Michael Roemelt        : Original ROCIS implementation                 
  Masaaki Saitow         : Open-shell DLPNO-CCSD energy and density      
  Barbara Sandhoefer     : DKH picture change effects                    
  Kantharuban Sivalingam : CASSCF convergence/infrastructure, NEVPT2 and variants, FIC-MRCI 
  Bernardo de Souza      : ESD, SOC TD-DFT                               
  Georgi L. Stoychev     : AutoAux, RI-MP2 NMR, DLPNO-MP2 response, X2C  
  Van Anh Tran           : RI-MP2 g-tensors                              
  Willem Van den Heuvel  : Paramagnetic NMR                              
  Zikuan Wang            : NOTCH, Electric field optimization            
  Frank Wennmohs         : Technical directorship and infrastructure     
  Hang Xu                : AUTO-CI-Response properties                   
                                                                         
[FACCTs GmbH]                                                            
  Markus Bursch, Miquel Garcia-Rates, Christoph Riplinger, Bernardo de Souza, Georgi L. Stoychev 
                                                                 
  APM, Basis sets (HGBS, AHGBS, def-TZVP (Ac-Lr), def2-XVPD (La-Lu)), CI-OPT, improved COSX, DLPNO-Multilevel,           
  DOCKER, DRACO, updates on ESD, GOAT, IRC, LR-CPCM, MBIS, meta-GGA TD-DFT gradient, ML-optimized integration grids, 
  MM, NACMEs, nearIR, NEB, NEB-TS, NL-DFT gradient (VV10), 2- and 3-layer-ONIOM, interface openCOSMO-RS, QMMM,   
  Crystal-QMMM, SF, symmetry and pop. for TD-DFT, r2SCAN hybrids, SOLVATOR                                   
                                                                         
[Other institutions]                                                     
  V. Asgeirsson          : NEB                                           
  Christoph Bannwarth    : sTDA-DFT, sTD-DFT, PBEh-3c, B97-3c, D3        
  Sebastian Ehlert       : rSCAN, r2SCAN, r2SCAN-3c, D4, dhf basis sets  
  Marvin Friede          : D4 for Fr, Ra, Ac-Lr                          
  Lars Goerigk           : TD-DFT with DH, B97 family of functionals     
  Stefan Grimme          : VdW corrections, initial TS optimization, DFT functionals, gCP, sTDA/sTD-DF 
  Waldemar Hujo          : DFT-NL                                        
  H. Jonsson             : NEB                                           
  Holger Kruse           : gCP                                           
  Marcel Mueller         : wB97X-3c, vDZP basis set                      
  Hagen Neugebauer       : wr2SCAN                                       
  Tobias Risthaus        : range-separated hybrid DFT                    
  Lukas Wittmann         : regularized MP2, r2SCAN double-hybrids, wr2SCAN        
                                                                         
We gratefully acknowledge several colleagues who have allowed us to      
interface, adapt or use parts of their codes:                            
  Ed Valeev, F. Pavosevic, A. Kumar             : LibInt (2-el integral package), F12 methods 
  Garnet Chan, S. Sharma, J. Yang, R. Olivares  : DMRG                   
  Ulf Ekstrom                                   : XCFun DFT Library      
  Mihaly Kallay                                 : mrcc  (arbitrary order and MRCC methods)
  Frank Weinhold                                : gennbo (NPA and NBO analysis)           
  Simon Mueller                                 : openCOSMO-RS                            
  Christopher J. Cramer and Donald G. Truhlar   : smd solvation model                     
  S Lehtola, MJT Oliveira, MAL Marques          : LibXC Library                           
  Liviu Ungur et al                             : ANISO software                          


 Your calculation uses the libint2 library for the computation of 2-el integrals
 For citations please refer to: http://libint.valeyev.net

 Your ORCA version has been built with support for libXC version: 6.2.2
 For citations please refer to: https://libxc.gitlab.io

 This ORCA versions uses:
   CBLAS   interface :  Fast vector & matrix operations
   LAPACKE interface :  Fast linear algebra routines
   SCALAPACK package :  Parallel linear algebra routines
   Shared memory     :  Shared parallel matrices
   BLAS/LAPACK       :  OpenBLAS 0.3.27  USE64BITINT DYNAMIC_ARCH NO_AFFINITY SkylakeX SINGLE_THREADED
        Core in use  :  SkylakeX
   Copyright (c) 2011-2014, The OpenBLAS Project


NOTE: MaxCore=2000 MB was set to SCF,MP2,MDCI,CIPSI,MRCI and CIS
      => If you want to overwrite this, your respective input block should be placed after the MaxCore statement
Warning: RI is on but no J-basis has been assigned. Assigning Def2/J (nothing to worry about!)
================================================================================

----- Orbital basis set information -----
Your calculation utilizes the basis: def2-TZVP
   F. Weigend and R. Ahlrichs, Phys. Chem. Chem. Phys. 7, 3297 (2005).

----- AuxJ basis set information -----
Your calculation utilizes the auxiliary basis: def2/J
   F. Weigend, Phys. Chem. Chem. Phys. 8, 1057 (2006).

================================================================================
                                        WARNINGS
                       Please study these warnings very carefully!
================================================================================


WARNING: Geometry Optimization
  ===> : Switching off AutoStart
         For restart on a previous wavefunction, please use MOREAD

================================================================================
                                       INPUT FILE
================================================================================
NAME = ch4.inp
|  1> ! B3LYP def2-TZVP Opt NumFreq TightSCF
|  2> %maxcore 2000
|  3> * xyz 0 1
|  4> C     0.000000    0.000000    0.000000
|  5> H     0.000000    0.000000    1.089000
|  6> H     1.026719    0.000000   -0.363000
|  7> H    -0.513360   -0.889165   -0.363000
|  8> H    -0.513360    0.889165   -0.363000
|  9> *
| 10> %elprop
| 11>    Polar 1
| 12> end
| 13> 
| 14>                          ****END OF INPUT****
================================================================================

                       *****************************
                       * Geometry Optimization Run *
                       *****************************

Geometry optimization settings:
Update method            Update   .... BFGS
Choice of coordinates    CoordSys .... (2022) Redundant Internals
Initial Hessian          InHess   .... Almloef's Model
Max. no of cycles        MaxIter  .... 50

Convergence Tolerances:
Energy Change            TolE     ....  5.0000e-06 Eh
Max. Gradient            TolMAXG  ....  3.0000e-04 Eh/bohr
RMS Gradient             TolRMSG  ....  1.0000e-04 Eh/bohr
Max. Displacement        TolMAXD  ....  4.0000e-03 bohr
RMS Displacement         TolRMSD  ....  2.0000e-03 bohr
Strict Convergence                .... False

------------------------------------------------------------------------------
                        ORCA OPTIMIZATION COORDINATE SETUP
------------------------------------------------------------------------------

The optimization will be done in redundant internal coordinates (2022)
Making redundant internal coordinates   ...  (2022 redundants) done
Evaluating the initial hessian          ...  (Almloef) done
Evaluating the coordinates              ...  done
Calculating the B-matrix                .... done
Calculating the G-matrix                .... done
Diagonalizing the G-matrix              .... done
The first mode is                       ....    1
The number of degrees of freedom        ....    9

    -----------------------------------------------------------------
                    Redundant Internal Coordinates


    -----------------------------------------------------------------
         Definition                    Initial Value    Approx d2E/dq
    -----------------------------------------------------------------
      1. B(H   1,C   0)                  1.0890         0.361425   
      2. B(H   2,C   0)                  1.0890         0.361425   
      3. B(H   3,C   0)                  1.0890         0.361425   
      4. B(H   4,C   0)                  1.0890         0.361425   
      5. A(H   1,C   0,H   3)          109.4712         0.291175   
      6. A(H   2,C   0,H   3)          109.4712         0.291175   
      7. A(H   1,C   0,H   4)          109.4712         0.291175   
      8. A(H   2,C   0,H   4)          109.4712         0.291175   
      9. A(H   3,C   0,H   4)          109.4712         0.291175   
     10. A(H   1,C   0,H   2)          109.4712         0.291175   
    -----------------------------------------------------------------

Number of atoms                         .... 5
Number of degrees of freedom            .... 10


         *************************************************************
         *                GEOMETRY OPTIMIZATION CYCLE   1            *
         *************************************************************
---------------------------------
CARTESIAN COORDINATES (ANGSTROEM)
---------------------------------
  C      0.000000    0.000000    0.000000
  H      0.000000    0.000000    1.089000
  H      1.026719    0.000000   -0.363000
  H     -0.513360   -0.889165   -0.363000
  H     -0.513360    0.889165   -0.363000

----------------------------
CARTESIAN COORDINATES (A.U.)
----------------------------
  NO LB      ZA    FRAG     MASS         X           Y           Z
   0 C     6.0000    0    12.011    0.000000    0.000000    0.000000
   1 H     1.0000    0     1.008    0.000000    0.000000    2.057912
   2 H     1.0000    0     1.008    1.940218    0.000000   -0.685971
   3 H     1.0000    0     1.008   -0.970110   -1.680278   -0.685971
   4 H     1.0000    0     1.008   -0.970110    1.680278   -0.685971

--------------------------------
INTERNAL COORDINATES (ANGSTROEM)
--------------------------------
 C      0   0   0     0.000000000000     0.00000000     0.00000000
 H      1   0   0     1.089000000000     0.00000000     0.00000000
 H      1   2   0     1.088999956364   109.47122145     0.00000000
 H      1   2   3     1.089000407174   109.47121306   120.00001681
 H      1   2   3     1.089000407174   109.47121306   239.99998319

---------------------------
INTERNAL COORDINATES (A.U.)
---------------------------
 C      0   0   0     0.000000000000     0.00000000     0.00000000
 H      1   0   0     2.057911759840     0.00000000     0.00000000
 H      1   2   0     2.057911677380   109.47122145     0.00000000
 H      1   2   3     2.057912529287   109.47121306   120.00001681
 H      1   2   3     2.057912529287   109.47121306   239.99998319

---------------------
BASIS SET INFORMATION
---------------------
There are 2 groups of distinct atoms

 Group   1 Type C   : 11s6p2d1f contracted to 5s3p2d1f pattern {62111/411/11/1}
 Group   2 Type H   : 5s1p contracted to 3s1p pattern {311/1}

Atom   0C    basis set group =>   1
Atom   1H    basis set group =>   2
Atom   2H    basis set group =>   2
Atom   3H    basis set group =>   2
Atom   4H    basis set group =>   2
---------------------------------
AUXILIARY/J BASIS SET INFORMATION
---------------------------------
There are 2 groups of distinct atoms

 Group   1 Type C   : 12s5p4d2f1g contracted to 6s4p3d1f1g pattern {711111/2111/211/2/1}
 Group   2 Type H   : 5s2p1d contracted to 3s1p1d pattern {311/2/1}

Atom   0C    basis set group =>   1
Atom   1H    basis set group =>   2
Atom   2H    basis set group =>   2
Atom   3H    basis set group =>   2
Atom   4H    basis set group =>   2
------------------------------------------------------------------------------
                             ORCA STARTUP CALCULATIONS
                           -- RI-GTO INTEGRALS CHOSEN --
------------------------------------------------------------------------------
------------------------------------------------------------------------------
                   ___                                                        
                  /   \      - P O W E R E D   B Y -                         
                 /     \                                                     
                 |  |  |   _    _      __       _____    __    __             
                 |  |  |  | |  | |    /  \     |  _  \  |  |  /  |          
                  \  \/   | |  | |   /    \    | | | |  |  | /  /          
                 / \  \   | |__| |  /  /\  \   | |_| |  |  |/  /          
                |  |  |   |  __  | /  /__\  \  |    /   |      \           
                |  |  |   | |  | | |   __   |  |    \   |  |\   \          
                \     /   | |  | | |  |  |  |  | |\  \  |  | \   \       
                 \___/    |_|  |_| |__|  |__|  |_| \__\ |__|  \__/        
                                                                              
                      - O R C A' S   B I G   F R I E N D -                    
                                      &                                       
                       - I N T E G R A L  F E E D E R -                       
                                                                              
 v1 FN, 2020, v2 2021, v3 2022-2024                                           
------------------------------------------------------------------------------


----------------------
SHARK INTEGRAL PACKAGE
----------------------

Number of atoms                             ...      5
Number of basis functions                   ...     55
Number of shells                            ...     27
Maximum angular momentum                    ...      3
Integral batch strategy                     ... SHARK/LIBINT Hybrid
RI-J (if used) integral strategy            ... SPLIT-RIJ (Revised 2003 algorithm where possible)
Printlevel                                  ...      1
Contraction scheme used                     ... SEGMENTED contraction
Prescreening option                         ... SCHWARTZ
   Thresh                                   ... 2.500e-11
   Tcut                                     ... 2.500e-12
   Tpresel                                  ... 2.500e-12 
Coulomb Range Separation                    ... NOT USED
Exchange Range Separation                   ... NOT USED
Multipole approximations                    ... NOT USED
Finite Nucleus Model                        ... NOT USED
CABS basis                                  ... NOT available
Auxiliary Coulomb fitting basis             ... AVAILABLE
   # of basis functions in Aux-J            ...     93
   # of shells in Aux-J                     ...     35
   Maximum angular momentum in Aux-J        ...      4
Auxiliary J/K fitting basis                 ... NOT available
Auxiliary Correlation fitting basis         ... NOT available
Auxiliary 'external' fitting basis          ... NOT available

Checking pre-screening integrals            ... done (  0.0 sec) Dimension = 27
Check shell pair data                       ... done (  0.0 sec)
Shell pair information
Shell pair cut-off parameter TPreSel        ...   2.5e-12
Total number of shell pairs                 ...       378
Shell pairs after pre-screening             ...       378
Total number of primitive shell pairs       ...      1024
Primitive shell pairs kept                  ...       972
          la=0 lb=0:    153 shell pairs
          la=1 lb=0:    119 shell pairs
          la=1 lb=1:     28 shell pairs
          la=2 lb=0:     34 shell pairs
          la=2 lb=1:     14 shell pairs
          la=2 lb=2:      3 shell pairs
          la=3 lb=0:     17 shell pairs
          la=3 lb=1:      7 shell pairs
          la=3 lb=2:      2 shell pairs
          la=3 lb=3:      1 shell pairs

Calculating one electron integrals          ... done (  0.0 sec)
Calculating RI/J V-Matrix + Cholesky decomp.... done (  0.0 sec)
Calculating Nuclear repulsion               ... done (  0.0 sec) ENN=     13.447724172533 Eh

Diagonalization of the overlap matrix:
Smallest eigenvalue                        ... 1.445e-03
Time for diagonalization                   ...    0.000 sec
Threshold for overlap eigenvalues          ... 1.000e-07
Number of eigenvalues below threshold      ... 0
Time for construction of square roots      ...    0.000 sec
Total time needed                          ...    0.001 sec

-------------------
DFT GRID GENERATION
-------------------

General Integration Accuracy     IntAcc      ... 4.388
Radial Grid Type                 RadialGrid  ... OptM3 with GC (2021)
Angular Grid (max. ang.)         AngularGrid ... 4 (Lebedev-302)
Angular grid pruning method      GridPruning ... 4 (adaptive)
Weight generation scheme         WeightScheme... mBecke (2022)
Basis function cutoff            BFCut       ... 1.0000e-11
Integration weight cutoff        WCut        ... 1.0000e-14
Partially contracted basis set               ... off
Rotationally invariant grid construction     ... off
Angular grids for H and He will be reduced by one unit

Total number of grid points                  ...    19248
Total number of batches                      ...      303
Average number of points per batch           ...       63
Average number of grid points per atom       ...     3850

--------------------
COSX GRID GENERATION
--------------------

GRIDX 1
-------
General Integration Accuracy     IntAcc      ... 3.816
Radial Grid Type                 RadialGrid  ... OptM3 with GC (2021)
Angular Grid (max. ang.)         AngularGrid ... 1 (Lebedev-50)
Angular grid pruning method      GridPruning ... 4 (adaptive)
Weight generation scheme         WeightScheme... mBecke (2022)
Basis function cutoff            BFCut       ... 1.0000e-11
Integration weight cutoff        WCut        ... 1.0000e-14
Partially contracted basis set               ... on
Rotationally invariant grid construction     ... off
Angular grids for H and He will be reduced by one unit

Total number of grid points                  ...     2523
Total number of batches                      ...       23
Average number of points per batch           ...      109
Average number of grid points per atom       ...      505
UseSFitting                                  ... on

GRIDX 2
-------
General Integration Accuracy     IntAcc      ... 4.020
Radial Grid Type                 RadialGrid  ... OptM3 with GC (2021)
Angular Grid (max. ang.)         AngularGrid ... 2 (Lebedev-110)
Angular grid pruning method      GridPruning ... 4 (adaptive)
Weight generation scheme         WeightScheme... mBecke (2022)
Basis function cutoff            BFCut       ... 1.0000e-11
Integration weight cutoff        WCut        ... 1.0000e-14
Partially contracted basis set               ... on
Rotationally invariant grid construction     ... off
Angular grids for H and He will be reduced by one unit

Total number of grid points                  ...     5076
Total number of batches                      ...       43
Average number of points per batch           ...      118
Average number of grid points per atom       ...     1015
UseSFitting                                  ... on

GRIDX 3
-------
General Integration Accuracy     IntAcc      ... 4.338
Radial Grid Type                 RadialGrid  ... OptM3 with GC (2021)
Angular Grid (max. ang.)         AngularGrid ... 3 (Lebedev-194)
Angular grid pruning method      GridPruning ... 4 (adaptive)
Weight generation scheme         WeightScheme... mBecke (2022)
Basis function cutoff            BFCut       ... 1.0000e-11
Integration weight cutoff        WCut        ... 1.0000e-14
Partially contracted basis set               ... on
Rotationally invariant grid construction     ... off
Angular grids for H and He will be reduced by one unit

Total number of grid points                  ...    11159
Total number of batches                      ...       91
Average number of points per batch           ...      122
Average number of grid points per atom       ...     2232
UseSFitting                                  ... on
Initializing property integral containers    ... done (  0.0 sec)

SHARK setup successfully completed in   0.2 seconds

Maximum memory used throughout the entire STARTUP-calculation: 13.7 MB
-------------------------------------------------------------------------------
                                 ORCA GUESS
                   Start orbitals & Density for SCF / CASSCF
-------------------------------------------------------------------------------

------------
SCF SETTINGS
------------
Hamiltonian:
 Density Functional     Method          .... DFT(GTOs)
 Exchange Functional    Exchange        .... B88
   X-Alpha parameter    XAlpha          ....  0.666667
   Becke's b parameter  XBeta           ....  0.004200
 Correlation Functional Correlation     .... LYP
 LDA part of GGA corr.  LDAOpt          .... VWN-5
 Gradients option       PostSCFGGA      .... off
 Hybrid DFT is turned on
   Fraction HF Exchange ScalHFX         ....  0.200000
   Scaling of DF-GGA-X  ScalDFX         ....  0.720000
   Scaling of DF-GGA-C  ScalDFC         ....  0.810000
   Scaling of DF-LDA-C  ScalLDAC        ....  1.000000
   Perturbative correction              ....  0.000000
   NL short-range parameter             ....  4.800000
 RI-approximation to the Coulomb term is turned on
   Number of AuxJ basis functions       .... 93
   RIJ-COSX (HFX calculated with COS-X)).... on


General Settings:
 Integral files         IntName         .... ch4
 Hartree-Fock type      HFTyp           .... RHF
 Total Charge           Charge          ....    0
 Multiplicity           Mult            ....    1
 Number of Electrons    NEL             ....   10
 Basis Dimension        Dim             ....   55
 Nuclear Repulsion      ENuc            ....     13.4477241725 Eh

Convergence Acceleration:
 AO-DIIS                CNVDIIS         .... on
   Start iteration      DIISMaxIt       ....    12
   Startup error        DIISStart       ....  0.200000
   # of expansion vecs  DIISMaxEq       ....     5
   Bias factor          DIISBfac        ....   1.050
   Max. coefficient     DIISMaxC        ....  10.000
 MO-DIIS                CNVKDIIS        .... off
 Trust-Rad. Augm. Hess. CNVTRAH         .... auto
   Auto Start mean grad. ratio tolernc. ....  1.125000
   Auto Start start iteration           ....    50
   Auto Start num. interpolation iter.  ....    10
   Max. Number of Micro iterations      ....    24
   Max. Number of Macro iterations      .... Maxiter - #DIIS iter
   Number of Davidson start vectors     ....     2
   Converg. threshold    (grad. norm)   ....   1.000e-05
   Grad. Scal. Fac. for Micro threshold ....   0.100
   Minimum threshold for Micro iter.    ....   1.000e-02
   NR start threshold (gradient norm)   ....   1.000e-04
   Initial trust radius                 ....   0.400
   Minimum AH scaling param. (alpha)    ....   1.000
   Maximum AH scaling param. (alpha)    .... 1000.000
   Quad. conv. algorithm                .... NR
   White noise on init. David. guess    .... on
   Maximum white noise                  ....   0.010
   Pseudo random numbers                .... off
   Inactive MOs                         .... canonical
   Orbital update algorithm             .... Taylor
   Preconditioner                       .... Diag
   Full preconditioner red. dimension   ....   250
 SOSCF                  CNVSOSCF        .... on
   Start iteration      SOSCFMaxIt      ....   150
   Startup grad/error   SOSCFStart      ....  0.003300
   Hessian update       SOSCFHessUp     .... L-BFGS
 Level Shifting         CNVShift        .... on
   Level shift para.    LevelShift      ....    0.2500
   Turn off err/grad.   ShiftErr        ....    0.0010
 Zerner damping         CNVZerner       .... off
 Static damping         CNVDamp         .... on
   Fraction old density DampFac         ....    0.7000
   Max. Damping (<1)    DampMax         ....    0.9800
   Min. Damping (>=0)   DampMin         ....    0.0000
   Turn off err/grad.   DampErr         ....    0.1000

SCF Procedure:
 Maximum # iterations   MaxIter         ....   125
 SCF integral mode      SCFMode         .... Direct
   Integral package                     .... SHARK and LIBINT hybrid scheme
 Reset frequency        DirectResetFreq ....    20
 Integral Threshold     Thresh          ....  2.500e-11 Eh
 Primitive CutOff       TCut            ....  2.500e-12 Eh

Convergence Tolerance:
 Convergence Check Mode ConvCheckMode   .... Total+1el-Energy
 Convergence forced     ConvForced      .... 0
 Energy Change          TolE            ....  1.000e-08 Eh
 1-El. energy change                    ....  1.000e-05 Eh
 Orbital Gradient       TolG            ....  1.000e-05
 Orbital Rotation angle TolX            ....  1.000e-05
 DIIS Error             TolErr          ....  5.000e-07

------------------------------
INITIAL GUESS: MODEL POTENTIAL
------------------------------
Loading Hartree-Fock densities                     ... done
Calculating cut-offs                               ... done
Initializing the effective Hamiltonian             ... done
Setting up the integral package (SHARK)            ... done
Starting the Coulomb interaction                   ... done (   0.0 sec)
Making the grid                                    ... done (   0.0 sec)
Mapping shells                                     ... done
Starting the XC term evaluation                    ... done (   0.0 sec)
  promolecular density results
     # of electrons  =      9.997243289
     EX              =     -6.307992687
     EC              =     -0.288610040
     EX+EC           =     -6.596602727
Transforming the Hamiltonian                       ... done (   0.0 sec)
Diagonalizing the Hamiltonian                      ... done (   0.0 sec)
Back transforming the eigenvectors                 ... done (   0.0 sec)
Now organizing SCF variables                       ... done
                      ------------------
                      INITIAL GUESS DONE (   0.0 sec)
                      ------------------
             **** ENERGY FILE WAS UPDATED (ch4.en.tmp) ****
Finished Guess after   0.1 sec
Maximum memory used throughout the entire GUESS-calculation: 7.4 MB

-------------------------------------------------------------------------------------------
                                      ORCA LEAN-SCF
                              memory conserving SCF solver
-------------------------------------------------------------------------------------------

----------------------------------------D-I-I-S--------------------------------------------
Iteration    Energy (Eh)           Delta-E    RMSDP     MaxDP     DIISErr   Damp  Time(sec)
-------------------------------------------------------------------------------------------
               ***  Starting incremental Fock matrix formation  ***
    1    -40.4154012454788472     0.00e+00  3.17e-03  4.53e-02  2.33e-01  0.700   0.2
    2    -40.4564182168564130    -4.10e-02  2.25e-03  2.62e-02  1.19e-01  0.700   0.1
                               ***Turning on AO-DIIS***
    3    -40.4726845939289248    -1.63e-02  8.54e-04  8.21e-03  4.25e-02  0.700   0.1
    4    -40.4817871163243694    -9.10e-03  1.25e-03  1.16e-02  1.89e-02  0.000   0.1
    5    -40.5014774835939164    -1.97e-02  3.08e-04  2.40e-03  1.06e-02  0.000   0.1
                              *** Initializing SOSCF ***
---------------------------------------S-O-S-C-F--------------------------------------
Iteration    Energy (Eh)           Delta-E    RMSDP     MaxDP     MaxGrad    Time(sec)
--------------------------------------------------------------------------------------
    6    -40.5016630556923047    -1.86e-04  1.16e-04  1.01e-03  2.70e-03     0.1
               *** Restarting incremental Fock matrix formation ***
    7    -40.5016712332261548    -8.18e-06  7.77e-05  6.87e-04  3.06e-04     0.2
    8    -40.5016712652222424    -3.20e-08  2.12e-05  2.85e-04  2.54e-04     0.2
    9    -40.5016721875860384    -9.22e-07  1.88e-06  1.78e-05  1.42e-05     0.2
   10    -40.5016721886327673    -1.05e-09  2.87e-07  2.88e-06  2.57e-06     0.2
                 **** Energy Check signals convergence ****

               *****************************************************
               *                     SUCCESS                       *
               *           SCF CONVERGED AFTER  10 CYCLES          *
               *****************************************************

Recomputing exchange energy using gridx3       ... done (    0.264 sec)
Old exchange energy                            :     -1.316244210 Eh
New exchange energy                            :     -1.316245784 Eh
Exchange energy change after final integration :     -0.000001574 Eh
Total energy after final integration           :    -40.501673763 Eh
             **** ENERGY FILE WAS UPDATED (ch4.en.tmp) ****

----------------
TOTAL SCF ENERGY
----------------

Total Energy       :        -40.50167376307517 Eh           -1102.10657 eV

Components:
Nuclear Repulsion  :         13.44772417253286 Eh             365.93118 eV
Electronic Energy  :        -53.94939636116563 Eh           -1468.03771 eV
One Electron Energy:        -79.86579965860440 Eh           -2173.25890 eV
Two Electron Energy:         25.91640329743878 Eh             705.22119 eV

Virial components:
Potential Energy   :        -80.76484374631283 Eh           -2197.72313 eV
Kinetic Energy     :         40.26316998323767 Eh            1095.61656 eV
Virial Ratio       :          2.00592362151159

DFT components:
N(Alpha)           :        4.999998909642 electrons
N(Beta)            :        4.999998909642 electrons
N(Total)           :        9.999997819284 electrons
E(X)               :       -5.208960352641 Eh       
E(C)               :       -0.351391990321 Eh       
E(XC)              :       -5.560352342961 Eh       

---------------
SCF CONVERGENCE
---------------

  Last Energy change         ...    1.0467e-09  Tolerance :   1.0000e-08
  Last MAX-Density change    ...    2.8771e-06  Tolerance :   1.0000e-07
  Last RMS-Density change    ...    2.8680e-07  Tolerance :   5.0000e-09
  Last DIIS Error            ...    2.6983e-03  Tolerance :   5.0000e-07
  Last Orbital Gradient      ...    2.5719e-06  Tolerance :   1.0000e-05
  Last Orbital Rotation      ...    1.1814e-06  Tolerance :   1.0000e-05


----------------
ORBITAL ENERGIES
----------------

  NO   OCC          E(Eh)            E(eV) 
   0   2.0000     -10.150130      -276.1991 
   1   2.0000      -0.693408       -18.8686 
   2   2.0000      -0.392252       -10.6737 
   3   2.0000      -0.392251       -10.6737 
   4   2.0000      -0.392250       -10.6737 
   5   0.0000       0.050785         1.3819 
   6   0.0000       0.125912         3.4262 
   7   0.0000       0.125917         3.4264 
   8   0.0000       0.125919         3.4264 
   9   0.0000       0.199288         5.4229 
  10   0.0000       0.199295         5.4231 
  11   0.0000       0.199301         5.4233 
  12   0.0000       0.393127        10.6975 
  13   0.0000       0.473973        12.8975 
  14   0.0000       0.473975        12.8975 
  15   0.0000       0.473979        12.8976 
*Only the first 10 virtual orbitals were printed.

                    ********************************
                    * MULLIKEN POPULATION ANALYSIS *
                    ********************************

-----------------------
MULLIKEN ATOMIC CHARGES
-----------------------
   0 C :   -0.463168
   1 H :    0.115793
   2 H :    0.115784
   3 H :    0.115795
   4 H :    0.115795
Sum of atomic charges:   -0.0000000

--------------------------------
MULLIKEN REDUCED ORBITAL CHARGES
--------------------------------
  0 C s       :     3.279741  s :     3.279741
      pz      :     1.055018  p :     3.165096
      px      :     1.055041
      py      :     1.055037
      dz2     :     0.005542  d :     0.016623
      dxz     :     0.001846
      dyz     :     0.001847
      dx2y2   :     0.003694
      dxy     :     0.003694
      f0      :     0.001047  f :     0.001708
      f+1     :    -0.000013
      f-1     :    -0.000013
      f+2     :    -0.000067
      f-2     :    -0.000067
      f+3     :     0.000822
      f-3     :    -0.000000

  1 H s       :     0.863119  s :     0.863119
      pz      :     0.012080  p :     0.021088
      px      :     0.004504
      py      :     0.004505

  2 H s       :     0.863129  s :     0.863129
      pz      :     0.005346  p :     0.021087
      px      :     0.011237
      py      :     0.004504

  3 H s       :     0.863117  s :     0.863117
      pz      :     0.005346  p :     0.021088
      px      :     0.006188
      py      :     0.009554

  4 H s       :     0.863117  s :     0.863117
      pz      :     0.005346  p :     0.021088
      px      :     0.006188
      py      :     0.009554



                     *******************************
                     * LOEWDIN POPULATION ANALYSIS *
                     *******************************

----------------------
LOEWDIN ATOMIC CHARGES
----------------------
   0 C :   -0.403923
   1 H :    0.100978
   2 H :    0.100980
   3 H :    0.100982
   4 H :    0.100982

-------------------------------
LOEWDIN REDUCED ORBITAL CHARGES
-------------------------------
  0 C s       :     2.896201  s :     2.896201
      pz      :     1.125682  p :     3.377065
      px      :     1.125692
      py      :     1.125691
      dz2     :     0.039367  d :     0.118099
      dxz     :     0.013122
      dyz     :     0.013122
      dx2y2   :     0.026244
      dxy     :     0.026244
      f0      :     0.003314  f :     0.012558
      f+1     :     0.000499
      f-1     :     0.000499
      f+2     :     0.002497
      f-2     :     0.002497
      f+3     :     0.003251
      f-3     :     0.000000

  1 H s       :     0.835932  s :     0.835932
      pz      :     0.036120  p :     0.063090
      px      :     0.013485
      py      :     0.013485

  2 H s       :     0.835930  s :     0.835930
      pz      :     0.016000  p :     0.063090
      px      :     0.033605
      py      :     0.013485

  3 H s       :     0.835928  s :     0.835928
      pz      :     0.016000  p :     0.063090
      px      :     0.018515
      py      :     0.028575

  4 H s       :     0.835928  s :     0.835928
      pz      :     0.016000  p :     0.063090
      px      :     0.018515
      py      :     0.028575



                      *****************************
                      * MAYER POPULATION ANALYSIS *
                      *****************************

  NA   - Mulliken gross atomic population
  ZA   - Total nuclear charge
  QA   - Mulliken gross atomic charge
  VA   - Mayer's total valence
  BVA  - Mayer's bonded valence
  FA   - Mayer's free valence

  ATOM       NA         ZA         QA         VA         BVA        FA
  0 C      6.4632     6.0000    -0.4632     3.9073     3.9073    -0.0000
  1 H      0.8842     1.0000     0.1158     0.9678     0.9678    -0.0000
  2 H      0.8842     1.0000     0.1158     0.9678     0.9678     0.0000
  3 H      0.8842     1.0000     0.1158     0.9678     0.9678     0.0000
  4 H      0.8842     1.0000     0.1158     0.9678     0.9678    -0.0000

  Mayer bond orders larger than 0.100000
B(  0-C ,  1-H ) :   0.9768 B(  0-C ,  2-H ) :   0.9768 B(  0-C ,  3-H ) :   0.9768 
B(  0-C ,  4-H ) :   0.9768 

-------
TIMINGS
-------

Total SCF time: 0 days 0 hours 0 min 1 sec 

Total time                  ....       1.962 sec
Sum of individual times     ....       1.949 sec  ( 99.3%)

SCF preparation             ....       0.063 sec  (  3.2%)
Fock matrix formation       ....       1.877 sec  ( 95.6%)
  Startup                   ....       0.001 sec  (  0.0% of F)
  Split-RI-J                ....       0.069 sec  (  3.7% of F)
  Chain of spheres X        ....       1.281 sec  ( 68.3% of F)
  XC integration            ....       0.523 sec  ( 27.8% of F)
    Basis function eval.    ....       0.208 sec  ( 39.8% of XC)
    Density eval.           ....       0.070 sec  ( 13.4% of XC)
    XC-Functional eval.     ....       0.067 sec  ( 12.8% of XC)
    XC-Potential eval.      ....       0.157 sec  ( 30.1% of XC)
Diagonalization             ....       0.000 sec  (  0.0%)
Density matrix formation    ....       0.001 sec  (  0.1%)
Total Energy calculation    ....       0.000 sec  (  0.0%)
Population analysis         ....       0.001 sec  (  0.1%)
Orbital Transformation      ....       0.001 sec  (  0.1%)
Orbital Orthonormalization  ....       0.000 sec  (  0.0%)
DIIS solution               ....       0.004 sec  (  0.2%)
SOSCF solution              ....       0.002 sec  (  0.1%)
Finished LeanSCF after   2.0 sec

Maximum memory used throughout the entire LEANSCF-calculation: 6.8 MB

-------------------------   --------------------
FINAL SINGLE POINT ENERGY       -40.501673763075
-------------------------   --------------------

------------------------------------------------------------------------------
                         ORCA SCF GRADIENT CALCULATION
------------------------------------------------------------------------------

Nuc. rep. gradient        (SHARK) ... done (  0.0 sec)
HCore & Overlap gradient  (SHARK) ... done (  0.0 sec)
Split-RIJ-J gradient      (SHARK) ... done (  0.1 sec)
COSX-gradient                     ... done (  1.2 sec)
XC gradient                       ... done (  0.2 sec)

------------------
CARTESIAN GRADIENT
------------------

   1   C   :   -0.000006435    0.000000048    0.000000973
   2   H   :   -0.000000667   -0.000000014   -0.000316388
   3   H   :   -0.000295095   -0.000000007    0.000106038
   4   H   :    0.000151077    0.000258467    0.000104691
   5   H   :    0.000151120   -0.000258495    0.000104686

Difference to translation invariance:
           :   -0.0000000000    0.0000000000    0.0000000000

Difference to rotation invariance:
           :   -0.0000000041   -0.0000088621   -0.0000000589

Norm of the Cartesian gradient     ...    0.0006321987
RMS gradient                       ...    0.0001632330
MAX gradient                       ...    0.0003163884

-------
TIMINGS
-------

Total SCF gradient time     ....        1.512 sec

Densities                   ....       0.000 sec  (  0.0%)
One electron gradient       ....       0.013 sec  (  0.8%)
RI-J Coulomb gradient       ....       0.100 sec  (  6.6%)
COSX gradient               ....       1.185 sec  ( 78.4%)
XC gradient                 ....       0.214 sec  ( 14.2%)

Maximum memory used throughout the entire SCFGRAD-calculation: 8.7 MB
------------------------------------------------------------------------------
                         ORCA GEOMETRY RELAXATION STEP
------------------------------------------------------------------------------

Reading the OPT-File                    .... done
Getting information on internals        .... done
Copying old internal coords+grads       .... done
Making the new internal coordinates     .... (2022 redundants) done
Validating the new internal coordinates .... (2022 redundants) done
Calculating the B-matrix                .... done
Calculating the G,G- and P matrices     .... done
Transforming gradient to internals      .... done
Projecting the internal gradient        .... done
Number of atoms                         ....   5
Number of internal coordinates          ....  10
Current Energy                          ....   -40.501673763 Eh
Current gradient norm                   ....     0.000632199 Eh/bohr
Maximum allowed component of the step   ....  0.300
Current trust radius                    ....  0.300
Evaluating the initial hessian          ....  (Almloef) done
Projecting the Hessian                  .... done
Forming the augmented Hessian           .... done
Diagonalizing the augmented Hessian     .... done
Last element of RFO vector              ....  0.999998470
Lowest eigenvalues of augmented Hessian:
 -0.000001106  0.291175228  0.291175283  0.291175287  0.291175291
Length of the computed step             ....  0.001749088
The final length of the internal step   ....  0.001749088
Converting the step to Cartesian space:
 Initial RMS(Int)=    0.0005531103
Transforming coordinates:
 Iter   0:  RMS(Cart)=    0.0004516050 RMS(Int)=    0.0005531103
done
Storing new coordinates                 .... done

                                .--------------------.
          ----------------------|Geometry convergence|-------------------------
          Item                value                   Tolerance       Converged
          ---------------------------------------------------------------------
          RMS gradient        0.0001999075            0.0001000000      NO
          MAX gradient        0.0003171941            0.0003000000      NO
          RMS step            0.0005531103            0.0020000000      YES
          MAX step            0.0008776186            0.0040000000      YES
          ........................................................
          Max(Bonds)      0.0005      Max(Angles)    0.00
          Max(Dihed)        0.00      Max(Improp)    0.00
          ---------------------------------------------------------------------

       The step convergence is overachieved with 
       reasonable convergence on the gradient
       Convergence will therefore be signaled now


                    ***********************HURRAY********************
                    ***        THE OPTIMIZATION HAS CONVERGED     ***
                    *************************************************


    ---------------------------------------------------------------------------
                         Redundant Internal Coordinates

                          --- Optimized Parameters ---  
                            (Angstroem and degrees)

        Definition                    OldVal   dE/dq     Step     FinalVal
    ----------------------------------------------------------------------------
     1. B(H   1,C   0)                1.0890 -0.000316  0.0005    1.0895   
     2. B(H   2,C   0)                1.0890 -0.000314  0.0005    1.0895   
     3. B(H   3,C   0)                1.0890 -0.000317  0.0005    1.0895   
     4. B(H   4,C   0)                1.0890 -0.000317  0.0005    1.0895   
     5. A(H   1,C   0,H   3)          109.47  0.000001   -0.00    109.47   
     6. A(H   2,C   0,H   3)          109.47 -0.000001    0.00    109.47   
     7. A(H   1,C   0,H   4)          109.47  0.000001   -0.00    109.47   
     8. A(H   2,C   0,H   4)          109.47 -0.000001    0.00    109.47   
     9. A(H   3,C   0,H   4)          109.47  0.000002   -0.00    109.47   
    10. A(H   1,C   0,H   2)          109.47 -0.000001    0.00    109.47   
    ----------------------------------------------------------------------------

Geometry step timings:
Preparation and reading OPT file:      0.000 s (19.519 %)
Internal coordinates            :      0.000 s ( 2.317 %)
B/P matrices and projection     :      0.000 s (15.152 %)
Hessian update/contruction      :      0.000 s (14.884 %)
Making the step                 :      0.000 s ( 9.626 %)
Converting the step to Cartesian:      0.000 s ( 4.902 %)
Storing new data                :      0.000 s ( 3.565 %)
Checking convergence            :      0.000 s ( 0.178 %)
Final printing                  :      0.000 s (29.412 %)
Total time                      :      0.001 s
                 *******************************************************
                 *** FINAL ENERGY EVALUATION AT THE STATIONARY POINT ***
                 ***               (AFTER    1 CYCLES)               ***
                 *******************************************************
---------------------------------
CARTESIAN COORDINATES (ANGSTROEM)
---------------------------------
  C      0.000003   -0.000000   -0.000001
  H     -0.000001    0.000000    1.089463
  H      1.027155   -0.000000   -0.363154
  H     -0.513579   -0.889542   -0.363154
  H     -0.513579    0.889542   -0.363154

----------------------------
CARTESIAN COORDINATES (A.U.)
----------------------------
  NO LB      ZA    FRAG     MASS         X           Y           Z
   0 C     6.0000    0    12.011    0.000006   -0.000000   -0.000001
   1 H     1.0000    0     1.008   -0.000001    0.000000    2.058786
   2 H     1.0000    0     1.008    1.941042   -0.000000   -0.686261
   3 H     1.0000    0     1.008   -0.970524   -1.680992   -0.686262
   4 H     1.0000    0     1.008   -0.970525    1.680992   -0.686262

--------------------------------
INTERNAL COORDINATES (ANGSTROEM)
--------------------------------
 C      0   0   0     0.000000000000     0.00000000     0.00000000
 H      1   0   0     1.089463235463     0.00000000     0.00000000
 H      1   2   0     1.089459056393   109.47143761     0.00000000
 H      1   2   3     1.089464763079   109.47104880   120.00031532
 H      1   2   3     1.089464822951   109.47104208   239.99968673

---------------------------
INTERNAL COORDINATES (A.U.)
---------------------------
 C      0   0   0     0.000000000000     0.00000000     0.00000000
 H      1   0   0     2.058787148000     0.00000000     0.00000000
 H      1   2   0     2.058779250704   109.47143761     0.00000000
 H      1   2   3     2.058790034777   109.47104880   120.00031532
 H      1   2   3     2.058790147919   109.47104208   239.99968673

---------------------
BASIS SET INFORMATION
---------------------
There are 2 groups of distinct atoms

 Group   1 Type C   : 11s6p2d1f contracted to 5s3p2d1f pattern {62111/411/11/1}
 Group   2 Type H   : 5s1p contracted to 3s1p pattern {311/1}

Atom   0C    basis set group =>   1
Atom   1H    basis set group =>   2
Atom   2H    basis set group =>   2
Atom   3H    basis set group =>   2
Atom   4H    basis set group =>   2
---------------------------------
AUXILIARY/J BASIS SET INFORMATION
---------------------------------
There are 2 groups of distinct atoms

 Group   1 Type C   : 12s5p4d2f1g contracted to 6s4p3d1f1g pattern {711111/2111/211/2/1}
 Group   2 Type H   : 5s2p1d contracted to 3s1p1d pattern {311/2/1}

Atom   0C    basis set group =>   1
Atom   1H    basis set group =>   2
Atom   2H    basis set group =>   2
Atom   3H    basis set group =>   2
Atom   4H    basis set group =>   2
------------------------------------------------------------------------------
                             ORCA STARTUP CALCULATIONS
                           -- RI-GTO INTEGRALS CHOSEN --
------------------------------------------------------------------------------
------------------------------------------------------------------------------
                   ___                                                        
                  /   \      - P O W E R E D   B Y -                         
                 /     \                                                     
                 |  |  |   _    _      __       _____    __    __             
                 |  |  |  | |  | |    /  \     |  _  \  |  |  /  |          
                  \  \/   | |  | |   /    \    | | | |  |  | /  /          
                 / \  \   | |__| |  /  /\  \   | |_| |  |  |/  /          
                |  |  |   |  __  | /  /__\  \  |    /   |      \           
                |  |  |   | |  | | |   __   |  |    \   |  |\   \          
                \     /   | |  | | |  |  |  |  | |\  \  |  | \   \       
                 \___/    |_|  |_| |__|  |__|  |_| \__\ |__|  \__/        
                                                                              
                      - O R C A' S   B I G   F R I E N D -                    
                                      &                                       
                       - I N T E G R A L  F E E D E R -                       
                                                                              
 v1 FN, 2020, v2 2021, v3 2022-2024                                           
------------------------------------------------------------------------------


----------------------
SHARK INTEGRAL PACKAGE
----------------------

Number of atoms                             ...      5
Number of basis functions                   ...     55
Number of shells                            ...     27
Maximum angular momentum                    ...      3
Integral batch strategy                     ... SHARK/LIBINT Hybrid
RI-J (if used) integral strategy            ... SPLIT-RIJ (Revised 2003 algorithm where possible)
Printlevel                                  ...      1
Contraction scheme used                     ... SEGMENTED contraction
Prescreening option                         ... SCHWARTZ
   Thresh                                   ... 2.500e-11
   Tcut                                     ... 2.500e-12
   Tpresel                                  ... 2.500e-12 
Coulomb Range Separation                    ... NOT USED
Exchange Range Separation                   ... NOT USED
Multipole approximations                    ... NOT USED
Finite Nucleus Model                        ... NOT USED
CABS basis                                  ... NOT available
Auxiliary Coulomb fitting basis             ... AVAILABLE
   # of basis functions in Aux-J            ...     93
   # of shells in Aux-J                     ...     35
   Maximum angular momentum in Aux-J        ...      4
Auxiliary J/K fitting basis                 ... NOT available
Auxiliary Correlation fitting basis         ... NOT available
Auxiliary 'external' fitting basis          ... NOT available

Checking pre-screening integrals            ... done (  0.0 sec) Dimension = 27
Check shell pair data                       ... done (  0.0 sec)
Shell pair information
Shell pair cut-off parameter TPreSel        ...   2.5e-12
Total number of shell pairs                 ...       378
Shell pairs after pre-screening             ...       378
Total number of primitive shell pairs       ...      1024
Primitive shell pairs kept                  ...       972
          la=0 lb=0:    153 shell pairs
          la=1 lb=0:    119 shell pairs
          la=1 lb=1:     28 shell pairs
          la=2 lb=0:     34 shell pairs
          la=2 lb=1:     14 shell pairs
          la=2 lb=2:      3 shell pairs
          la=3 lb=0:     17 shell pairs
          la=3 lb=1:      7 shell pairs
          la=3 lb=2:      2 shell pairs
          la=3 lb=3:      1 shell pairs

Calculating one electron integrals          ... done (  0.0 sec)
Calculating RI/J V-Matrix + Cholesky decomp.... done (  0.0 sec)
Calculating Nuclear repulsion               ... done (  0.0 sec) ENN=     13.442011913577 Eh

Diagonalization of the overlap matrix:
Smallest eigenvalue                        ... 1.448e-03
Time for diagonalization                   ...    0.000 sec
Threshold for overlap eigenvalues          ... 1.000e-07
Number of eigenvalues below threshold      ... 0
Time for construction of square roots      ...    0.000 sec
Total time needed                          ...    0.001 sec

-------------------
DFT GRID GENERATION
-------------------

General Integration Accuracy     IntAcc      ... 4.388
Radial Grid Type                 RadialGrid  ... OptM3 with GC (2021)
Angular Grid (max. ang.)         AngularGrid ... 4 (Lebedev-302)
Angular grid pruning method      GridPruning ... 4 (adaptive)
Weight generation scheme         WeightScheme... mBecke (2022)
Basis function cutoff            BFCut       ... 1.0000e-11
Integration weight cutoff        WCut        ... 1.0000e-14
Partially contracted basis set               ... off
Rotationally invariant grid construction     ... off
Angular grids for H and He will be reduced by one unit

Total number of grid points                  ...    19248
Total number of batches                      ...      303
Average number of points per batch           ...       63
Average number of grid points per atom       ...     3850

--------------------
COSX GRID GENERATION
--------------------

GRIDX 1
-------
General Integration Accuracy     IntAcc      ... 3.816
Radial Grid Type                 RadialGrid  ... OptM3 with GC (2021)
Angular Grid (max. ang.)         AngularGrid ... 1 (Lebedev-50)
Angular grid pruning method      GridPruning ... 4 (adaptive)
Weight generation scheme         WeightScheme... mBecke (2022)
Basis function cutoff            BFCut       ... 1.0000e-11
Integration weight cutoff        WCut        ... 1.0000e-14
Partially contracted basis set               ... on
Rotationally invariant grid construction     ... off
Angular grids for H and He will be reduced by one unit

Total number of grid points                  ...     2523
Total number of batches                      ...       24
Average number of points per batch           ...      105
Average number of grid points per atom       ...      505
UseSFitting                                  ... on

GRIDX 2
-------
General Integration Accuracy     IntAcc      ... 4.020
Radial Grid Type                 RadialGrid  ... OptM3 with GC (2021)
Angular Grid (max. ang.)         AngularGrid ... 2 (Lebedev-110)
Angular grid pruning method      GridPruning ... 4 (adaptive)
Weight generation scheme         WeightScheme... mBecke (2022)
Basis function cutoff            BFCut       ... 1.0000e-11
Integration weight cutoff        WCut        ... 1.0000e-14
Partially contracted basis set               ... on
Rotationally invariant grid construction     ... off
Angular grids for H and He will be reduced by one unit

Total number of grid points                  ...     5076
Total number of batches                      ...       43
Average number of points per batch           ...      118
Average number of grid points per atom       ...     1015
UseSFitting                                  ... on

GRIDX 3
-------
General Integration Accuracy     IntAcc      ... 4.338
Radial Grid Type                 RadialGrid  ... OptM3 with GC (2021)
Angular Grid (max. ang.)         AngularGrid ... 3 (Lebedev-194)
Angular grid pruning method      GridPruning ... 4 (adaptive)
Weight generation scheme         WeightScheme... mBecke (2022)
Basis function cutoff            BFCut       ... 1.0000e-11
Integration weight cutoff        WCut        ... 1.0000e-14
Partially contracted basis set               ... on
Rotationally invariant grid construction     ... off
Angular grids for H and He will be reduced by one unit

Total number of grid points                  ...    11159
Total number of batches                      ...       91
Average number of points per batch           ...      122
Average number of grid points per atom       ...     2232
UseSFitting                                  ... on
Initializing property integral containers    ... done (  0.0 sec)

SHARK setup successfully completed in   0.2 seconds

Maximum memory used throughout the entire STARTUP-calculation: 13.8 MB
-------------------------------------------------------------------------------
                                 ORCA GUESS
                   Start orbitals & Density for SCF / CASSCF
-------------------------------------------------------------------------------

------------
SCF SETTINGS
------------
Hamiltonian:
 Density Functional     Method          .... DFT(GTOs)
 Exchange Functional    Exchange        .... B88
   X-Alpha parameter    XAlpha          ....  0.666667
   Becke's b parameter  XBeta           ....  0.004200
 Correlation Functional Correlation     .... LYP
 LDA part of GGA corr.  LDAOpt          .... VWN-5
 Gradients option       PostSCFGGA      .... off
 Hybrid DFT is turned on
   Fraction HF Exchange ScalHFX         ....  0.200000
   Scaling of DF-GGA-X  ScalDFX         ....  0.720000
   Scaling of DF-GGA-C  ScalDFC         ....  0.810000
   Scaling of DF-LDA-C  ScalLDAC        ....  1.000000
   Perturbative correction              ....  0.000000
   NL short-range parameter             ....  4.800000
 RI-approximation to the Coulomb term is turned on
   Number of AuxJ basis functions       .... 93
   RIJ-COSX (HFX calculated with COS-X)).... on


General Settings:
 Integral files         IntName         .... ch4
 Hartree-Fock type      HFTyp           .... RHF
 Total Charge           Charge          ....    0
 Multiplicity           Mult            ....    1
 Number of Electrons    NEL             ....   10
 Basis Dimension        Dim             ....   55
 Nuclear Repulsion      ENuc            ....     13.4420119136 Eh

Convergence Acceleration:
 AO-DIIS                CNVDIIS         .... on
   Start iteration      DIISMaxIt       ....    12
   Startup error        DIISStart       ....  0.200000
   # of expansion vecs  DIISMaxEq       ....     5
   Bias factor          DIISBfac        ....   1.050
   Max. coefficient     DIISMaxC        ....  10.000
 MO-DIIS                CNVKDIIS        .... off
 Trust-Rad. Augm. Hess. CNVTRAH         .... auto
   Auto Start mean grad. ratio tolernc. ....  1.125000
   Auto Start start iteration           ....     1
   Auto Start num. interpolation iter.  ....    10
   Max. Number of Micro iterations      ....    24
   Max. Number of Macro iterations      .... Maxiter - #DIIS iter
   Number of Davidson start vectors     ....     2
   Converg. threshold    (grad. norm)   ....   1.000e-05
   Grad. Scal. Fac. for Micro threshold ....   0.100
   Minimum threshold for Micro iter.    ....   1.000e-02
   NR start threshold (gradient norm)   ....   1.000e-04
   Initial trust radius                 ....   0.400
   Minimum AH scaling param. (alpha)    ....   1.000
   Maximum AH scaling param. (alpha)    .... 1000.000
   Quad. conv. algorithm                .... NR
   White noise on init. David. guess    .... on
   Maximum white noise                  ....   0.010
   Pseudo random numbers                .... off
   Inactive MOs                         .... canonical
   Orbital update algorithm             .... Taylor
   Preconditioner                       .... Diag
   Full preconditioner red. dimension   ....   250
 SOSCF                  CNVSOSCF        .... on
   Start iteration      SOSCFMaxIt      ....   150
   Startup grad/error   SOSCFStart      ....  0.003300
   Hessian update       SOSCFHessUp     .... L-BFGS
 Level Shifting         CNVShift        .... on
   Level shift para.    LevelShift      ....    0.2500
   Turn off err/grad.   ShiftErr        ....    0.0010
 Zerner damping         CNVZerner       .... off
 Static damping         CNVDamp         .... on
   Fraction old density DampFac         ....    0.7000
   Max. Damping (<1)    DampMax         ....    0.9800
   Min. Damping (>=0)   DampMin         ....    0.0000
   Turn off err/grad.   DampErr         ....    0.1000

SCF Procedure:
 Maximum # iterations   MaxIter         ....   125
 SCF integral mode      SCFMode         .... Direct
   Integral package                     .... SHARK and LIBINT hybrid scheme
 Reset frequency        DirectResetFreq ....    20
 Integral Threshold     Thresh          ....  2.500e-11 Eh
 Primitive CutOff       TCut            ....  2.500e-12 Eh

Convergence Tolerance:
 Convergence Check Mode ConvCheckMode   .... Total+1el-Energy
 Convergence forced     ConvForced      .... 0
 Energy Change          TolE            ....  1.000e-08 Eh
 1-El. energy change                    ....  1.000e-05 Eh
 Orbital Gradient       TolG            ....  1.000e-05
 Orbital Rotation angle TolX            ....  1.000e-05
 DIIS Error             TolErr          ....  5.000e-07

---------------------
INITIAL GUESS: MOREAD
---------------------
Guess MOs are being read from file: ch4.gbw
Input Geometry matches current geometry (good)
Input basis set matches current basis set (good)
Occupation numbers will be reassigned to an Aufbau configuration
MOs were renormalized
MOs were reorthogonalized (Cholesky)
                      ------------------
                      INITIAL GUESS DONE (   0.0 sec)
                      ------------------
             **** ENERGY FILE WAS UPDATED (ch4.en.tmp) ****
Finished Guess after   0.0 sec
Maximum memory used throughout the entire GUESS-calculation: 7.4 MB

-------------------------------------------------------------------------------------------
                                      ORCA LEAN-SCF
                              memory conserving SCF solver
-------------------------------------------------------------------------------------------

----------------------------------------D-I-I-S--------------------------------------------
Iteration    Energy (Eh)           Delta-E    RMSDP     MaxDP     DIISErr   Damp  Time(sec)
-------------------------------------------------------------------------------------------
               ***  Starting incremental Fock matrix formation  ***
                              *** Initializing SOSCF ***
---------------------------------------S-O-S-C-F--------------------------------------
Iteration    Energy (Eh)           Delta-E    RMSDP     MaxDP     MaxGrad    Time(sec)
--------------------------------------------------------------------------------------
    1    -40.5016726410988497     0.00e+00  1.07e-05  1.57e-04  1.82e-05     0.2
               *** Restarting incremental Fock matrix formation ***
    2    -40.5016727316663108    -9.06e-08  6.18e-06  9.26e-05  4.77e-05     0.2
    3    -40.5016727268322114     4.83e-09  3.30e-06  4.04e-05  3.95e-05     0.2
                 **** Energy Check signals convergence ****

               *****************************************************
               *                     SUCCESS                       *
               *           SCF CONVERGED AFTER   3 CYCLES          *
               *****************************************************

Recomputing exchange energy using gridx3       ... done (    0.264 sec)
Old exchange energy                            :     -1.316123600 Eh
New exchange energy                            :     -1.316125182 Eh
Exchange energy change after final integration :     -0.000001583 Eh
Total energy after final integration           :    -40.501674310 Eh
             **** ENERGY FILE WAS UPDATED (ch4.en.tmp) ****

----------------
TOTAL SCF ENERGY
----------------

Total Energy       :        -40.50167430951760 Eh           -1102.10659 eV

Components:
Nuclear Repulsion  :         13.44201191357722 Eh             365.77574 eV
Electronic Energy  :        -53.94368464040943 Eh           -1467.88228 eV
One Electron Energy:        -79.85592095530890 Eh           -2172.99008 eV
Two Electron Energy:         25.91223631489948 Eh             705.10780 eV

Virial components:
Potential Energy   :        -80.76239999047723 Eh           -2197.65663 eV
Kinetic Energy     :         40.26072568095964 Eh            1095.55004 eV
Virial Ratio       :          2.00598470654671

DFT components:
N(Alpha)           :        4.999998912483 electrons
N(Beta)            :        4.999998912483 electrons
N(Total)           :        9.999997824965 electrons
E(X)               :       -5.208531667933 Eh       
E(C)               :       -0.351365939446 Eh       
E(XC)              :       -5.559897607378 Eh       

---------------
SCF CONVERGENCE
---------------

  Last Energy change         ...   -4.8341e-09  Tolerance :   1.0000e-08
  Last MAX-Density change    ...    4.0367e-05  Tolerance :   1.0000e-07
  Last RMS-Density change    ...    3.3016e-06  Tolerance :   5.0000e-09
  Last DIIS Error            ...    1.9775e-04  Tolerance :   5.0000e-07
  Last Orbital Gradient      ...    3.9524e-05  Tolerance :   1.0000e-05
  Last Orbital Rotation      ...    3.0979e-05  Tolerance :   1.0000e-05


----------------
ORBITAL ENERGIES
----------------

  NO   OCC          E(Eh)            E(eV) 
   0   2.0000     -10.150132      -276.1991 
   1   2.0000      -0.693198       -18.8629 
   2   2.0000      -0.392117       -10.6700 
   3   2.0000      -0.392115       -10.6700 
   4   2.0000      -0.392114       -10.6700 
   5   0.0000       0.050742         1.3808 
   6   0.0000       0.125838         3.4242 
   7   0.0000       0.125843         3.4244 
   8   0.0000       0.125846         3.4244 
   9   0.0000       0.199322         5.4238 
  10   0.0000       0.199329         5.4240 
  11   0.0000       0.199335         5.4242 
  12   0.0000       0.393110        10.6971 
  13   0.0000       0.473813        12.8931 
  14   0.0000       0.473813        12.8931 
  15   0.0000       0.473819        12.8933 
*Only the first 10 virtual orbitals were printed.

                    ********************************
                    * MULLIKEN POPULATION ANALYSIS *
                    ********************************

-----------------------
MULLIKEN ATOMIC CHARGES
-----------------------
   0 C :   -0.463220
   1 H :    0.115806
   2 H :    0.115798
   3 H :    0.115808
   4 H :    0.115808
Sum of atomic charges:   -0.0000000

--------------------------------
MULLIKEN REDUCED ORBITAL CHARGES
--------------------------------
  0 C s       :     3.280007  s :     3.280007
      pz      :     1.054942  p :     3.164868
      px      :     1.054965
      py      :     1.054962
      dz2     :     0.005546  d :     0.016635
      dxz     :     0.001847
      dyz     :     0.001848
      dx2y2   :     0.003697
      dxy     :     0.003696
      f0      :     0.001047  f :     0.001709
      f+1     :    -0.000013
      f-1     :    -0.000013
      f+2     :    -0.000067
      f-2     :    -0.000066
      f+3     :     0.000822
      f-3     :     0.000000

  1 H s       :     0.863120  s :     0.863120
      pz      :     0.012079  p :     0.021074
      px      :     0.004497
      py      :     0.004498

  2 H s       :     0.863130  s :     0.863130
      pz      :     0.005340  p :     0.021072
      px      :     0.011235
      py      :     0.004497

  3 H s       :     0.863119  s :     0.863119
      pz      :     0.005339  p :     0.021073
      px      :     0.006183
      py      :     0.009551

  4 H s       :     0.863119  s :     0.863119
      pz      :     0.005339  p :     0.021073
      px      :     0.006183
      py      :     0.009551



                     *******************************
                     * LOEWDIN POPULATION ANALYSIS *
                     *******************************

----------------------
LOEWDIN ATOMIC CHARGES
----------------------
   0 C :   -0.404210
   1 H :    0.101050
   2 H :    0.101051
   3 H :    0.101054
   4 H :    0.101054

-------------------------------
LOEWDIN REDUCED ORBITAL CHARGES
-------------------------------
  0 C s       :     2.896643  s :     2.896643
      pz      :     1.125643  p :     3.376947
      px      :     1.125652
      py      :     1.125652
      dz2     :     0.039361  d :     0.118080
      dxz     :     0.013119
      dyz     :     0.013120
      dx2y2   :     0.026239
      dxy     :     0.026240
      f0      :     0.003309  f :     0.012541
      f+1     :     0.000499
      f-1     :     0.000499
      f+2     :     0.002494
      f-2     :     0.002494
      f+3     :     0.003246
      f-3     :     0.000000

  1 H s       :     0.835931  s :     0.835931
      pz      :     0.036105  p :     0.063019
      px      :     0.013457
      py      :     0.013457

  2 H s       :     0.835929  s :     0.835929
      pz      :     0.015974  p :     0.063020
      px      :     0.033589
      py      :     0.013457

  3 H s       :     0.835926  s :     0.835926
      pz      :     0.015973  p :     0.063019
      px      :     0.018490
      py      :     0.028556

  4 H s       :     0.835926  s :     0.835926
      pz      :     0.015973  p :     0.063019
      px      :     0.018490
      py      :     0.028556



                      *****************************
                      * MAYER POPULATION ANALYSIS *
                      *****************************

  NA   - Mulliken gross atomic population
  ZA   - Total nuclear charge
  QA   - Mulliken gross atomic charge
  VA   - Mayer's total valence
  BVA  - Mayer's bonded valence
  FA   - Mayer's free valence

  ATOM       NA         ZA         QA         VA         BVA        FA
  0 C      6.4632     6.0000    -0.4632     3.9072     3.9072     0.0000
  1 H      0.8842     1.0000     0.1158     0.9678     0.9678     0.0000
  2 H      0.8842     1.0000     0.1158     0.9678     0.9678     0.0000
  3 H      0.8842     1.0000     0.1158     0.9678     0.9678    -0.0000
  4 H      0.8842     1.0000     0.1158     0.9678     0.9678    -0.0000

  Mayer bond orders larger than 0.100000
B(  0-C ,  1-H ) :   0.9768 B(  0-C ,  2-H ) :   0.9768 B(  0-C ,  3-H ) :   0.9768 
B(  0-C ,  4-H ) :   0.9768 

-------
TIMINGS
-------

Total SCF time: 0 days 0 hours 0 min 0 sec 

Total time                  ....       0.898 sec
Sum of individual times     ....       0.889 sec  ( 99.0%)

SCF preparation             ....       0.047 sec  (  5.2%)
Fock matrix formation       ....       0.836 sec  ( 93.2%)
  Startup                   ....       0.000 sec  (  0.0% of F)
  Split-RI-J                ....       0.021 sec  (  2.5% of F)
  Chain of spheres X        ....       0.656 sec  ( 78.5% of F)
  XC integration            ....       0.158 sec  ( 18.9% of F)
    Basis function eval.    ....       0.062 sec  ( 39.5% of XC)
    Density eval.           ....       0.022 sec  ( 14.0% of XC)
    XC-Functional eval.     ....       0.020 sec  ( 12.7% of XC)
    XC-Potential eval.      ....       0.048 sec  ( 30.2% of XC)
Diagonalization             ....       0.000 sec  (  0.0%)
Density matrix formation    ....       0.000 sec  (  0.0%)
Total Energy calculation    ....       0.000 sec  (  0.0%)
Population analysis         ....       0.002 sec  (  0.3%)
Orbital Transformation      ....       0.001 sec  (  0.1%)
Orbital Orthonormalization  ....       0.000 sec  (  0.0%)
DIIS solution               ....       0.001 sec  (  0.1%)
SOSCF solution              ....       0.001 sec  (  0.1%)
Finished LeanSCF after   0.9 sec

Maximum memory used throughout the entire LEANSCF-calculation: 6.9 MB

-------------------------   --------------------
FINAL SINGLE POINT ENERGY       -40.501674309518
-------------------------   --------------------

                                *** OPTIMIZATION RUN DONE ***

------------------------------------------------------------------------------
                            ORCA SCF RESPONSE CALCULATION
------------------------------------------------------------------------------

GBWName                                 ... ch4.gbw
Number of atoms                         ...      5
Number of basis functions               ...     55
Max core memory                         ...   2000 MB

Electric field perturbation             ... YES
Quadrupolar field perturbation          ...  NO
Magnetic field perturbation (no GIAO)   ...  NO
Magnetic field perturbation (with GIAO) ...  NO
Linear momentum (velocity) perturbation ...  NO
Spin-orbit coupling perturbation        ...  NO
Choice of electric origin               ... Center of mass
Position of electric origin             ...     0.000004    -0.000000    -0.000001
Choice of magnetic origin               ... GIAO
Position of magnetic origin             ...     0.000000     0.000000     0.000000
Nuclear geometric perturbations         ...  NO (  15 perturbations)
Nucleus-orbit perturbations             ...  NO (   0 perturbations)
Spin-dipole/Fermi contact perturbations ...  NO (   0 perturbations)

Total number of real perturbations      ...      3
Total number of imaginary perturbations ...      0
Total number of triplet perturbations   ...      0
Total number of SOC perturbations       ...      0


                                **********************
                                * REAL PERTURBATIONS *
                                **********************



-------------------
SHARK CP-SCF DRIVER
-------------------

Dimension of the orbital basis          ...     55
Dimension of the CPSCF-problem          ...    250
Number of operators                     ...      1
Max. number of iterations               ...    128
Convergence Tolerance                   ... 1.0e-04
Number of perturbations                 ...      3
Perturbation type                       ... REAL

----------------------------
POPLE LINEAR EQUATION SOLVER
----------------------------

  ITERATION   0:   ||err||_max =   9.7380e-01 (   0.1 sec   0/  3 done)
  ITERATION   1:   ||err||_max =   3.5658e-02 (   0.1 sec   0/  3 done)
  ITERATION   2:   ||err||_max =   2.6279e-03 (   0.1 sec   0/  3 done)
  ITERATION   3:   ||err||_max =   4.6767e-04 (   0.1 sec   0/  3 done)
  ITERATION   4:   ||err||_max =   1.1925e-04 (   0.1 sec   1/  3 done)
  ITERATION   5:   ||err||_max =   4.7840e-06 (   0.1 sec   3/  3 done)

CP-SCF equations solved in   0.5 sec
Response densities calculated in   0.0 sec

Maximum memory used throughout the entire SCFRESP-calculation: 6.4 MB

------------------------------------------------------------------------------
[...]
diagonalized tensor: 
      15.187194168        15.208300825        15.214015017  

Orientation: 
      -0.068937983        -0.997620946         0.000044491  
       0.000011465        -0.000045389        -0.999999999  
       0.997620947        -0.068937983         0.000014566  

Isotropic polarizability :  15.20317


Polarizability tensor calculation done in   0.0 sec 

Maximum memory used throughout the entire PROP-calculation: 4.3 MB

----------------------------------------------------------------------------
                           ORCA NUMERICAL FREQUENCIES
----------------------------------------------------------------------------

Number of atoms                ... 5
Central differences            ... used
Number of displacements        ... 30
Numerical increment            ... 5.000e-03 bohr
IR-spectrum generation         ... on
Raman-spectrum generation      ... on
Polarizability calculation     ... 1
Surface Crossing Hessian       ... off

The output will be reduced. Please look at the following files:
SCF program output             ... >ch4.lastscf
Integral program output        ... >ch4.lastint
Gradient program output        ... >ch4.lastgrad
Dipole moment program output   ... >ch4.lastmom

	<< Calculating gradient on displaced geometry   1 (of  30) >>
	<< Calculating gradient on displaced geometry   2 (of  30) >>
	<< Calculating gradient on displaced geometry   3 (of  30) >>
	<< Calculating gradient on displaced geometry   4 (of  30) >>
	<< Calculating gradient on displaced geometry   5 (of  30) >>
	<< Calculating gradient on displaced geometry   6 (of  30) >>
	<< Calculating gradient on displaced geometry   7 (of  30) >>
	<< Calculating gradient on displaced geometry   8 (of  30) >>
	<< Calculating gradient on displaced geometry   9 (of  30) >>
	<< Calculating gradient on displaced geometry  10 (of  30) >>
	<< Calculating gradient on displaced geometry  11 (of  30) >>
	<< Calculating gradient on displaced geometry  12 (of  30) >>
	<< Calculating gradient on displaced geometry  13 (of  30) >>
	<< Calculating gradient on displaced geometry  14 (of  30) >>
	<< Calculating gradient on displaced geometry  15 (of  30) >>
	<< Calculating gradient on displaced geometry  16 (of  30) >>
	<< Calculating gradient on displaced geometry  17 (of  30) >>
	<< Calculating gradient on displaced geometry  18 (of  30) >>
	<< Calculating gradient on displaced geometry  19 (of  30) >>
	<< Calculating gradient on displaced geometry  20 (of  30) >>
	<< Calculating gradient on displaced geometry  21 (of  30) >>
	<< Calculating gradient on displaced geometry  22 (of  30) >>
	<< Calculating gradient on displaced geometry  23 (of  30) >>
	<< Calculating gradient on displaced geometry  24 (of  30) >>
	<< Calculating gradient on displaced geometry  25 (of  30) >>
	<< Calculating gradient on displaced geometry  26 (of  30) >>
	<< Calculating gradient on displaced geometry  27 (of  30) >>
	<< Calculating gradient on displaced geometry  28 (of  30) >>
	<< Calculating gradient on displaced geometry  29 (of  30) >>
	<< Calculating gradient on displaced geometry  30 (of  30) >>

-----------------------
VIBRATIONAL FREQUENCIES
-----------------------

Scaling factor for frequencies =  1.000000000  (already applied!)

     0:       0.00 cm**-1
     1:       0.00 cm**-1
     2:       0.00 cm**-1
     3:       0.00 cm**-1
     4:       0.00 cm**-1
     5:       0.00 cm**-1
     6:    1338.72 cm**-1
     7:    1340.25 cm**-1
     8:    1340.62 cm**-1
     9:    1554.67 cm**-1
    10:    1555.06 cm**-1
    11:    3028.37 cm**-1
    12:    3129.64 cm**-1
    13:    3131.71 cm**-1
    14:    3132.75 cm**-1


------------
NORMAL MODES
------------

These modes are the Cartesian displacements weighted by the diagonal matrix
M(i,i)=1/sqrt(m[i]) where m[i] is the mass of the displaced atom
Thus, these vectors are normalized but *not* orthogonal

                  0          1          2          3          4          5    
      0       0.000000   0.000000   0.000000   0.000000   0.000000   0.000000
      1       0.000000   0.000000   0.000000   0.000000   0.000000   0.000000
      2       0.000000   0.000000   0.000000   0.000000   0.000000   0.000000
      3       0.000000   0.000000   0.000000   0.000000   0.000000   0.000000
      4       0.000000   0.000000   0.000000   0.000000   0.000000   0.000000
      5       0.000000   0.000000   0.000000   0.000000   0.000000   0.000000
      6       0.000000   0.000000   0.000000   0.000000   0.000000   0.000000
      7       0.000000   0.000000   0.000000   0.000000   0.000000   0.000000
      8       0.000000   0.000000   0.000000   0.000000   0.000000   0.000000
      9       0.000000   0.000000   0.000000   0.000000   0.000000   0.000000
     10       0.000000   0.000000   0.000000   0.000000   0.000000   0.000000
     11       0.000000   0.000000   0.000000   0.000000   0.000000   0.000000
     12       0.000000   0.000000   0.000000   0.000000   0.000000   0.000000
     13       0.000000   0.000000   0.000000   0.000000   0.000000   0.000000
     14       0.000000   0.000000   0.000000   0.000000   0.000000   0.000000
                  6          7          8          9         10         11    
      0       0.001173  -0.066130   0.106037  -0.000309   0.000014  -0.000850
      1       0.125016   0.003501   0.000800  -0.000002   0.000028  -0.000010
      2      -0.003388   0.105939   0.066142  -0.000108   0.000008  -0.000958
      3      -0.005685   0.320289  -0.514417  -0.497962   0.007950  -0.000380
      4      -0.603798  -0.016902  -0.003809  -0.008023  -0.500066   0.000003
      5      -0.002494   0.077803   0.048775  -0.000609   0.000003   0.508572
      6       0.006082  -0.192841  -0.104447  -0.167470   0.002681   0.475411
      7      -0.604052  -0.016911  -0.003912   0.008028   0.499805   0.000008
      8       0.012225  -0.330474  -0.466154  -0.469719   0.007499  -0.168466
      9       0.260210   0.337752  -0.320583   0.329926  -0.293983  -0.232421
     10      -0.143524   0.015019   0.325150  -0.289845   0.004642  -0.402978
     11       0.204249  -0.499544  -0.184206   0.242361   0.404431  -0.164323
     12      -0.274587   0.322790  -0.324055   0.339185   0.283188  -0.232477
     13      -0.138272  -0.022926  -0.326960   0.289865  -0.004721   0.403090
     14      -0.173604  -0.510113  -0.186535   0.229249  -0.412035  -0.164369
                 12         13         14    
      0      -0.037673  -0.083906   0.001880
      1      -0.000093   0.002100   0.091867
      2       0.083988  -0.037640   0.000942
      3      -0.008281  -0.018663   0.000408
      4      -0.000007   0.000464   0.020342
      5      -0.783289   0.346088  -0.008639
      6       0.568372   0.576708  -0.012563
      7      -0.000017   0.000466   0.020323
      8      -0.186110  -0.219109   0.004804
      9      -0.055257   0.213114  -0.344599
     10      -0.081768   0.399962  -0.577228
     11      -0.015452   0.155276  -0.243748
     12      -0.055933   0.228635   0.334350
     13       0.082904  -0.425913  -0.558090
     14      -0.015918   0.166248   0.236360


-----------
IR SPECTRUM
-----------

 Mode   freq       eps      Int      T**2         TX        TY        TZ
       cm**-1   L/(mol*cm) km/mol    a.u.
----------------------------------------------------------------------------
  6:   1338.72   0.002742   13.86  0.000639  (-0.000247 -0.025272  0.000698)
  7:   1340.25   0.002848   14.39  0.000663  ( 0.013832 -0.000707 -0.021711)
  8:   1340.62   0.002918   14.75  0.000679  (-0.022010 -0.000161 -0.013956)
  9:   1554.67   0.000003    0.01  0.000001  ( 0.000717 -0.000002  0.000281)
 10:   1555.06   0.000000    0.00  0.000000  (-0.000014 -0.000095 -0.000005)
 11:   3028.37   0.000002    0.01  0.000000  (-0.000293 -0.000002 -0.000345)
 12:   3129.64   0.004757   24.04  0.000474  (-0.008901 -0.000021  0.019877)
 13:   3131.71   0.004670   23.60  0.000465  (-0.019672  0.000487 -0.008839)
 14:   3132.75   0.004552   23.00  0.000453  ( 0.000441  0.021288  0.000222)

* The epsilon (eps) is given for a Dirac delta lineshape.
** The dipole moment derivative (T) already includes vibrational overlap.

--------------
RAMAN SPECTRUM  
--------------

 Mode    freq (cm**-1)   Activity   Depolarization
-------------------------------------------------------------------
   6:      1338.72      0.301454      0.749986
   7:      1340.25      0.333877      0.742612
   8:      1340.62      0.324975      0.732620
   9:      1554.67     17.393941      0.750000
  10:      1555.06     17.337498      0.750000
  11:      3028.37    160.148545      0.000033
  12:      3129.64     57.684087      0.749836
  13:      3131.71     57.803852      0.749515
  14:      3132.75     57.966226      0.749999

The first frequency considered to be a vibration is 6
The total number of vibrations considered is 9


--------------------------
THERMOCHEMISTRY AT 298.15K
--------------------------

Temperature         ...   298.15 K
Pressure            ...     1.00 atm
Total Mass          ...    16.04 AMU
Quasi RRHO          ...     True
Cut-Off Frequency   ...     1.00 cm^-1

Throughout the following assumptions are being made:
  (1) The electronic state is orbitally nondegenerate
  (2) There are no thermally accessible electronically excited states
  (3) Hindered rotations indicated by low frequency modes are not
      treated as such but are treated as vibrations and this may
      cause some error
  (4) All equations used are the standard statistical mechanics
      equations for an ideal gas
  (5) All vibrations are strictly harmonic

freq.    1338.72  E(vib)   ...       0.01 
freq.    1340.25  E(vib)   ...       0.01 
freq.    1340.62  E(vib)   ...       0.01 
freq.    1554.67  E(vib)   ...       0.00 
freq.    1555.06  E(vib)   ...       0.00 
freq.    3028.37  E(vib)   ...       0.00 
freq.    3129.64  E(vib)   ...       0.00 
freq.    3131.71  E(vib)   ...       0.00 
freq.    3132.75  E(vib)   ...       0.00 

------------
INNER ENERGY
------------

The inner energy is: U= E(el) + E(ZPE) + E(vib) + E(rot) + E(trans)
    E(el)   - is the total energy from the electronic structure calculation
              = E(kin-el) + E(nuc-el) + E(el-el) + E(nuc-nuc)
    E(ZPE)  - the the zero temperature vibrational energy from the frequency calculation
    E(vib)  - the the finite temperature correction to E(ZPE) due to population
              of excited vibrational states
    E(rot)  - is the rotational thermal energy
    E(trans)- is the translational thermal energy

Summary of contributions to the inner energy U:
Electronic energy                ...    -40.50167433 Eh
Zero point energy                ...      0.04454226 Eh      27.95 kcal/mol
Thermal vibrational correction   ...      0.00003638 Eh       0.02 kcal/mol
Thermal rotational correction    ...      0.00141627 Eh       0.89 kcal/mol
Thermal translational correction ...      0.00141627 Eh       0.89 kcal/mol
-----------------------------------------------------------------------
Total thermal energy                    -40.45426315 Eh


Summary of corrections to the electronic energy:
(perhaps to be used in another calculation)
Total thermal correction                  0.00286892 Eh       1.80 kcal/mol
Non-thermal (ZPE) correction              0.04454226 Eh      27.95 kcal/mol
-----------------------------------------------------------------------
Total correction                          0.04741118 Eh      29.75 kcal/mol


--------
ENTHALPY
--------

The enthalpy is H = U + kB*T
                kB is Boltzmann's constant
Total thermal energy              ...    -40.45426315 Eh 
Thermal Enthalpy correction       ...      0.00094421 Eh       0.59 kcal/mol
-----------------------------------------------------------------------
Total Enthalpy                    ...    -40.45331894 Eh


Note: Rotational entropy computed according to Herzberg 
Infrared and Raman Spectra, Chapter V,1, Van Nostrand Reinhold, 1945 
Point Group:  Td, Symmetry Number:  12  
Rotational constants in cm-1:     5.283760     5.283753     5.283753 

Vibrational entropy computed according to the QRRHO of S. Grimme
Chem.Eur.J. 2012 18 9955 using a reference frequency of 100.0 cm-1


-------
ENTROPY
-------

The entropy contributions are T*S = T*(S(el)+S(vib)+S(rot)+S(trans))
     S(el)   - electronic entropy
     S(vib)  - vibrational entropy
     S(rot)  - rotational entropy
     S(trans)- translational entropy
The entropies will be listed as multiplied by the temperature to get
units of energy

Electronic entropy                ...      0.00000000 Eh      0.00 kcal/mol
Vibrational entropy               ...      0.00004184 Eh      0.03 kcal/mol
Rotational entropy                ...      0.00480703 Eh      3.02 kcal/mol
Translational entropy             ...      0.01627961 Eh     10.22 kcal/mol
-----------------------------------------------------------------------
Final entropy term                ...      0.02112848 Eh     13.26 kcal/mol

In case the symmetry of your molecule has not been determined correctly
or in case you have a reason to use a different symmetry number we print 
out the resulting rotational entropy values for sn=1,12:

 non-linear molecules -----------------------------------
|  sn= 1 | S(rot)=       0.00715323 Eh      4.49 kcal/mol|
|  sn= 2 | S(rot)=       0.00649878 Eh      4.08 kcal/mol|
|  sn= 3 | S(rot)=       0.00611594 Eh      3.84 kcal/mol|
|  sn= 4 | S(rot)=       0.00584432 Eh      3.67 kcal/mol|
|  sn= 5 | S(rot)=       0.00563363 Eh      3.54 kcal/mol|
|  sn= 6 | S(rot)=       0.00546149 Eh      3.43 kcal/mol|
|  sn= 7 | S(rot)=       0.00531594 Eh      3.34 kcal/mol|
|  sn= 8 | S(rot)=       0.00518986 Eh      3.26 kcal/mol|
|  sn= 9 | S(rot)=       0.00507865 Eh      3.19 kcal/mol|
|  sn=10 | S(rot)=       0.00497918 Eh      3.12 kcal/mol|
|  sn=11 | S(rot)=       0.00488919 Eh      3.07 kcal/mol|
|  sn=12 | S(rot)=       0.00480703 Eh      3.02 kcal/mol|
 linear molecules ---------------------------------------
|  Dinfh | S(rot)=       0.00375409 Eh      2.36 kcal/mol|
|  Cinfv | S(rot)=       0.00440854 Eh      2.77 kcal/mol|
 --------------------------------------------------------


-------------------
GIBBS FREE ENERGY
-------------------

The Gibbs free energy is G = H - T*S

Total enthalpy                    ...    -40.45331894 Eh 
Total entropy correction          ...     -0.02112848 Eh    -13.26 kcal/mol
-----------------------------------------------------------------------
Final Gibbs free energy         ...    -40.47444743 Eh

For completeness - the Gibbs free energy minus the electronic energy
G-E(el)                           ...      0.02722691 Eh     17.09 kcal/mol



--------------------------------
SUGGESTED CITATIONS FOR THIS RUN
--------------------------------

Below you find a list of papers that are relevant to this ORCA run
We neither can nor want to force you to cite these papers, but we appreciate if you do
You receive ORCA, which is the product of decades of hard work by many enthusiastic individuals, for free
The only thing we kindly ask in return is that you cite our papers,
We deeply appreciate it, if you show your appreciation for ORCA by not just citing the generic ORCA reference.

Please note that relegating all ORCA citations to the supporting information does *not* help us.
SI sections are not indexed - citations you put there will not count into any citation statistics
But we need these citations in order to attract the funding resources that allow us to do what we are doing

Therefore, if you are a happy ORCA user, please consider citing a few of the papers listed below in the main body of your paper

In addition to the list printed below, the program has created the file ch4.bibtex that contains the list in bibtex format
You can import this file easily into all common literature databanks and citation aid programs


List of essential papers. We consider these as the minimum necessary citations

  1. Neese,F.
     Software update: the ORCA program system, version 5.0
     WIRES Comput. Molec. Sci., 2022 12(1)e1606
     doi.org/10.1002/wcms.1606

List of papers to cite with high priority. The work reported in these papers was absolutely
necessary for this run to complete.
Our perspective: the developers of density functionals and basis sets usually get cited in chemistry papers
Good! But without the algorithms to do something with them, the functionals or basis sets would not do anything.
Hence, in our opinion, the algorithm design and method developments papers are equally worthy of getting cited

  1. Neese,F.
     An improvement of the resolution of the identity approximation for the formation of the Coulomb matrix
     J. Comp. Chem., 2003 24(14)1740-1747
     doi.org/10.1002/jcc.10318
  2. Neese,F.; Wennmohs,F.; Hansen,A.; Becker,U.
     Efficient, approximate and parallel Hartree-Fock and hybrid DFT calculations. A 'chain-of-spheres' algorithm for the Hartree-Fock exchange
     Chem. Phys., 2009 356(1-3)98-109
     doi.org/10.1016/j.chemphys.2008.10.036
  3. Bykov,D.; Petrenko,T.; Izsak,R.; Kossmann,S.; Becker,U.; Valeev,E.; Neese,F.
     Efficient implementation of the analytic second derivatives of Hartree-Fock and hybrid DFT energies: a detailed analysis of different approximations
     Molec. Phys., 2015 113 1961-1977
     doi.org/10.1080/00268976.2015.1025114
  4. Helmich-Paris,B.; de Souza,B.; Neese,F.; Izsák,R.
     An improved chain of spheres for exchange algorithm
     J. Chem. Phys., 2021 155 104109
     doi.org/doi: 10.1063/5.0058766.
  5. Neese,F.
     The SHARK Integral Generation and Digestion System
     J. Comp. Chem., 2022  1-16
     doi.org/10.1002/jcc.26942

List of suggested additional citations. These are papers that are important in the 'surrounding' of 
of this run, or papers that preceded the highly important papers. If you like your results we are grateful for a citation.

  1. Izsak,R.; Neese,F.
     An overlap fitted chain of spheres exchange method
     J. Chem. Phys., 2011 135 144105
     doi.org/10.1063/1.3646921
  2. Izsak,R.; Hansen,A.; Neese,F.
     The resolution of identity and chain of spheres approximations for the LPNO-CCSD singles Fock term
     Molec. Phys., 2012 110 2413-2417
     doi.org/10.1080/00268976.2012.687466
  3. Neese,F.
     The ORCA program system
     WIRES Comput. Molec. Sci., 2012 2(1)73-78
     doi.org/10.1002/wcms.81
  4. Izsak,R.; Neese,F.; Klopper,W.
     Robust fitting techniques in the chain of spheres approximation to the Fock exchange: The role of the complementary space
     J. Chem. Phys., 2013 139 
     doi.org/10.1063/1.4819264
  5. Neese,F.
     Software update: the ORCA program system, version 4.0
     WIRES Comput. Molec. Sci., 2018 8(1)1-6
     doi.org/10.1002/wcms.1327
  6. Neese,F.; Wennmohs,F.; Becker,U.; Riplinger,C.
     The ORCA quantum chemistry program package
     J. Chem. Phys., 2020 152 Art. No. L224108
     doi.org/10.1063/5.0004608

List of optional additional citations

  1. Neese,F.
     Approximate second-order SCF convergence for spin unrestricted wavefunctions
     Chem. Phys. Lett., 2000 325(1-3)93-98
     doi.org/10.1016/s0009-2614(00)00662-x

Timings for individual modules:

Sum of individual times          ...      121.680 sec (=   2.028 min)
Startup calculation              ...        0.555 sec (=   0.009 min)   0.5 %
SCF iterations                   ...        3.804 sec (=   0.063 min)   3.1 %
SCF Response                     ...        0.596 sec (=   0.010 min)   0.5 %
Property calculations            ...        0.046 sec (=   0.001 min)   0.0 %
SCF Gradient evaluation          ...        3.116 sec (=   0.052 min)   2.6 %
Geometry relaxation              ...        0.005 sec (=   0.000 min)   0.0 %
Numerical frequency calculation  ...      113.558 sec (=   1.893 min)  93.3 %
                             ****ORCA TERMINATED NORMALLY****
TOTAL RUN TIME: 0 days 0 hours 1 minutes 59 seconds 275 msec
