
                                 *****************
                                 * O   R   C   A *
                                 *****************

                                            #,                                       
                                            ###                                      
                                            ####                                     
                                            #####                                    
                                            ######                                   
                                           ########,                                 
                                     ,,################,,,,,                         
                               ,,#################################,,                 
                          ,,##########################################,,             
                       ,#########################################, ''#####,          
                    ,#############################################,,   '####,        
                  ,##################################################,,,,####,       
                ,###########''''           ''''###############################       
              ,#####''   ,,,,##########,,,,          '''####'''          '####       
            ,##' ,,,,###########################,,,                        '##       
           ' ,,###''''                  '''############,,,                           
         ,,##''                                '''############,,,,        ,,,,,,###''
      ,#''                                            '''#######################'''  
     '                                                          ''''####''''         
             ,#######,   #######,   ,#######,      ##                                
            ,#'     '#,  ##    ##  ,#'     '#,    #''#        ,####,   ,####,        
            ##       ##  ##   ,#'  ##            #'  '#       #'       #'  '#        
            ##       ##  #######   ##           ,######,      #####,   #    #        
            '#,     ,#'  ##    ##  '#,     ,#' ,#      #,     #,   #   #,  ,#        
             '#######'   ##     ##  '#######'  #'      '#     '####' # '####'        



                #########################################################
                #                        -***-                          #
                #          Department of theory and spectroscopy        #
                #                                                       #
                #                      Frank Neese                      #
                #                                                       #
                #     Directorship, Architecture, Infrastructure        #
                #                    SHARK, DRIVERS                     #
                #        Core code/Algorithms in most modules           #
                #                                                       #
                #        Max Planck Institute fuer Kohlenforschung      #
                #                Kaiser Wilhelm Platz 1                 #
                #                 D-45470 Muelheim/Ruhr                 #
                #                      Germany                          #
                #                                                       #
                #                  All rights reserved                  #
                #                        -***-                          #
                #########################################################


                         Program Version 6.0.1  -  RELEASE   -


 With contributions from (in alphabetic order):
[Max-Planck-Institut fuer Kohlenforschung]                               
  Daniel Aravena         : Magnetic Suceptibility                        
  Michael Atanasov       : Ab Initio Ligand Field Theory (pilot matlab implementation)
  Alexander A. Auer      : GIAO ZORA, VPT2 properties, NMR spectrum      
  Ute Becker             : All parallelization in ORCA, NUMFREQ, NUMCALC 
  Giovanni Bistoni       : ED, misc. LED, open-shell LED, HFLD           
  Martin Brehm           : Molecular dynamics                            
  Dmytro Bykov           : pre 5.0 version of the SCF Hessian            
  Marcos Casanova-Páez   : Triplet and SCS-CIS(D). UHF-(DLPNO)-IP/EA/STEOM-CCSD. UHF-CVS-IP/STEOM-CCSD   
  Vijay G. Chilkuri      : MRCI spin determinant printing, contributions to CSF-ICE 
  Pauline Colinet        : FMM embedding                                 
  Dipayan Datta          : RHF DLPNO-CCSD density                        
  Achintya Kumar Dutta   : EOM-CC, STEOM-CC                              
  Nicolas Foglia         : Exact transition moments, OPA infrastructure, MCD improvements    
  Dmitry Ganyushin       : Spin-Orbit,Spin-Spin,Magnetic field MRCI      
  Miquel Garcia-Rates    : C-PCM and meta-GGA Hessian, CCSD/C-PCM, Gaussian charge scheme 
  Tiago L. C. Gouveia    : GS-ROHF, GS-ROCIS                             
  Yang Guo               : DLPNO-NEVPT2, F12-NEVPT2, CIM, IAO-localization        
  Andreas Hansen         : Spin unrestricted coupled pair/coupled cluster methods 
  Ingolf Harden          : AUTO-CI MPn and infrastructure                
  Benjamin Helmich-Paris : MC-RPA, TRAH-(SCF,CASSCF), AVAS, COSX integrals, SCF dyn. polar. 
  Lee Huntington         : MR-EOM, pCC                                   
  Robert Izsak           : Overlap fitted RIJCOSX, COSX-SCS-MP3, EOM     
  Riya Kayal             : Wick's Theorem for AUTO-CI, AUTO-CI UHF-CCSDT 
  Emily Kempfer          : AUTO-CI, RHF CISDT and CCSDT                  
  Christian Kollmar      : KDIIS, OOCD, Brueckner-CCSD(T), CCSD density, CASPT2, CASPT2-K, improved NEVPT2 
  Axel Koslowski         : Symmetry handling                             
  Simone Kossmann        : meta-GGA functionals, TD-DFT gradient, OOMP2, (MP2 Hessian; deprecated post 5.0) 
  Lucas Lang             : DCDCAS                                        
  Marvin Lechner         : AUTO-CI (C++ implementation), FIC-MRCC        
  Spencer Leger          : CASSCF response                               
  Dagmar Lenk            : GEPOL surface, SMD, ORCA-2-JSON               
  Dimitrios Liakos       : Extrapolation schemes; Compound Job, initial MDCI parallelization 
  Dimitrios Manganas     : Further ROCIS development; embedding schemes. LFT, Crystal Embedding 
  Dimitrios Pantazis     : SARC Basis sets                               
  Anastasios Papadopoulos: AUTO-CI, single reference methods and gradients 
  Taras Petrenko         : pre 6.0 DFT Hessian and TD-DFT gradient, (ASA, deprecated), ECA, 1-Electron XAS/XES, NRVS 
  Peter Pinski           : DLPNO-MP2, DLPNO-MP2 Gradient                 
  Christoph Reimann      : Effective Core Potentials                     
  Marius Retegan         : Local ZFS, SOC                                
  Christoph Riplinger    : Optimizer, TS searches, QM/MM, DLPNO-CCSD(T), (RO)-DLPNO pert. Triples 
  Michael Roemelt        : Original ROCIS implementation                 
  Masaaki Saitow         : Open-shell DLPNO-CCSD energy and density      
  Barbara Sandhoefer     : DKH picture change effects                    
  Kantharuban Sivalingam : CASSCF convergence/infrastructure, NEVPT2 and variants, FIC-MRCI 
  Bernardo de Souza      : ESD, SOC TD-DFT                               
  Georgi L. Stoychev     : AutoAux, RI-MP2 NMR, DLPNO-MP2 response, X2C  
  Van Anh Tran           : RI-MP2 g-tensors                              
  Willem Van den Heuvel  : Paramagnetic NMR                              
  Zikuan Wang            : NOTCH, Electric field optimization            
  Frank Wennmohs         : Technical directorship and infrastructure     
  Hang Xu                : AUTO-CI-Response properties                   
                                                                         
[FACCTs GmbH]                                                            
  Markus Bursch, Miquel Garcia-Rates, Christoph Riplinger, Bernardo de Souza, Georgi L. Stoychev 
                                                                 
  APM, Basis sets (HGBS, AHGBS, def-TZVP (Ac-Lr), def2-XVPD (La-Lu)), CI-OPT, improved COSX, DLPNO-Multilevel,           
  DOCKER, DRACO, updates on ESD, GOAT, IRC, LR-CPCM, MBIS, meta-GGA TD-DFT gradient, ML-optimized integration grids, 
  MM, NACMEs, nearIR, NEB, NEB-TS, NL-DFT gradient (VV10), 2- and 3-layer-ONIOM, interface openCOSMO-RS, QMMM,   
  Crystal-QMMM, SF, symmetry and pop. for TD-DFT, r2SCAN hybrids, SOLVATOR                                   
                                                                         
[Other institutions]                                                     
  V. Asgeirsson          : NEB                                           
  Christoph Bannwarth    : sTDA-DFT, sTD-DFT, PBEh-3c, B97-3c, D3        
  Sebastian Ehlert       : rSCAN, r2SCAN, r2SCAN-3c, D4, dhf basis sets  
  Marvin Friede          : D4 for Fr, Ra, Ac-Lr                          
  Lars Goerigk           : TD-DFT with DH, B97 family of functionals     
  Stefan Grimme          : VdW corrections, initial TS optimization, DFT functionals, gCP, sTDA/sTD-DF 
  Waldemar Hujo          : DFT-NL                                        
  H. Jonsson             : NEB                                           
  Holger Kruse           : gCP                                           
  Marcel Mueller         : wB97X-3c, vDZP basis set                      
  Hagen Neugebauer       : wr2SCAN                                       
  Tobias Risthaus        : range-separated hybrid DFT                    
  Lukas Wittmann         : regularized MP2, r2SCAN double-hybrids, wr2SCAN        
                                                                         
We gratefully acknowledge several colleagues who have allowed us to      
interface, adapt or use parts of their codes:                            
  Ed Valeev, F. Pavosevic, A. Kumar             : LibInt (2-el integral package), F12 methods 
  Garnet Chan, S. Sharma, J. Yang, R. Olivares  : DMRG                   
  Ulf Ekstrom                                   : XCFun DFT Library      
  Mihaly Kallay                                 : mrcc  (arbitrary order and MRCC methods)
  Frank Weinhold                                : gennbo (NPA and NBO analysis)           
  Simon Mueller                                 : openCOSMO-RS                            
  Christopher J. Cramer and Donald G. Truhlar   : smd solvation model                     
  S Lehtola, MJT Oliveira, MAL Marques          : LibXC Library                           
  Liviu Ungur et al                             : ANISO software                          


 Your calculation uses the libint2 library for the computation of 2-el integrals
 For citations please refer to: http://libint.valeyev.net

 Your ORCA version has been built with support for libXC version: 6.2.2
 For citations please refer to: https://libxc.gitlab.io

 This ORCA versions uses:
   CBLAS   interface :  Fast vector & matrix operations
   LAPACKE interface :  Fast linear algebra routines
   SCALAPACK package :  Parallel linear algebra routines
   Shared memory     :  Shared parallel matrices
   BLAS/LAPACK       :  OpenBLAS 0.3.27  USE64BITINT DYNAMIC_ARCH NO_AFFINITY SkylakeX SINGLE_THREADED
        Core in use  :  SkylakeX
   Copyright (c) 2011-2014, The OpenBLAS Project


Warning: RI is on but no J-basis has been assigned. Assigning Def2/J (nothing to worry about!)
================================================================================

----- Orbital basis set information -----
Your calculation utilizes the basis: def2-SVP
   F. Weigend and R. Ahlrichs, Phys. Chem. Chem. Phys. 7, 3297 (2005).

----- AuxJ basis set information -----
Your calculation utilizes the auxiliary basis: def2/J
   F. Weigend, Phys. Chem. Chem. Phys. 8, 1057 (2006).

================================================================================
                                        WARNINGS
                       Please study these warnings very carefully!
================================================================================

WARNING: Old DensityContainer found on disk!
         Will remove this file - 
         If you want to keep old densities, please start your calculation with a different basename. 


WARNING: Analytical Hessian not available for calculation of RAMAN spectra
       : If you need RAMAN spectra, please choose NumFreq!
       : Will only calculate polarizabilties



================================================================================
                                       INPUT FILE
================================================================================
NAME = job.inp
|  1> ! B3LYP def2-SVP TightSCF Freq
|  2> %output
|  3>   PrintLevel 5
|  4> end
|  5> * xyz 0 1
|  6>    C         -0.0000019740          0.0000000202          0.0000000006
|  7>    O          0.6293711538         -0.0000000085          0.0000000006
|  8>    O         -0.6293693800         -0.0000000104         -0.0000000002
|  9> *
| 10> %elprop
| 11>  Polar 1
| 12> end
| 13> 
| 14>                          ****END OF INPUT****
================================================================================

                       ****************************
                       * Single Point Calculation *
                       ****************************

---------------------------------
CARTESIAN COORDINATES (ANGSTROEM)
---------------------------------
  C     -0.000002    0.000000    0.000000
  O      0.629371   -0.000000    0.000000
  O     -0.629369   -0.000000   -0.000000

----------------------------
CARTESIAN COORDINATES (A.U.)
----------------------------
  NO LB      ZA    FRAG     MASS         X           Y           Z
   0 C     6.0000    0    12.011   -0.000004    0.000000    0.000000
   1 O     8.0000    0    15.999    1.189339   -0.000000    0.000000
   2 O     8.0000    0    15.999   -1.189336   -0.000000   -0.000000

--------------------------------
INTERNAL COORDINATES (ANGSTROEM)
--------------------------------
 C      0   0   0     0.000000000000     0.00000000     0.00000000
 O      1   0   0     0.629373127800     0.00000000     0.00000000
 O      1   2   0     0.629367406000   179.99999467     0.00000000

---------------------------
INTERNAL COORDINATES (A.U.)
---------------------------
 C      0   0   0     0.000000000000     0.00000000     0.00000000
 O      1   0   0     1.189342847591     0.00000000     0.00000000
 O      1   2   0     1.189332034956   179.99999467     0.00000000

---------------------
BASIS SET INFORMATION
---------------------
There are 2 groups of distinct atoms

 Group   1 Type C   : 7s4p1d contracted to 3s2p1d pattern {511/31/1}
 Group   2 Type O   : 7s4p1d contracted to 3s2p1d pattern {511/31/1}

Atom   0C    basis set group =>   1
Atom   1O    basis set group =>   2
Atom   2O    basis set group =>   2

-------------------------
BASIS SET IN INPUT FORMAT
-------------------------

 # Basis set for element : C 
 NewGTO C 
 S 5 
   1    1238.4016938000      0.0055173650
   2     186.2900499200      0.0410888285
   3      42.2511763460      0.1822538213
   4      11.6765579320      0.4682845944
   5       3.5930506482      0.4457581734
 S 1 
   1       0.4024514736      1.0000000000
 S 1 
   1       0.1309018267      1.0000000000
 P 3 
   1       9.4680970621      0.0568883320
   2       2.0103545142      0.3129405934
   3       0.5477100471      0.7606501651
 P 1 
   1       0.1526861379      1.0000000000
 D 1 
   1       0.8000000000      1.0000000000
  end;

 # Basis set for element : O 
 NewGTO O 
 S 5 
   1    2266.1767785000     -0.0053893504
   2     340.8701019100     -0.0402347214
   3      77.3631351670     -0.1800818421
   4      21.4796449400     -0.4682885766
   5       6.6589433124     -0.4469261716
 S 1 
   1       0.8097597567      1.0000000000
 S 1 
   1       0.2553077223      1.0000000000
 P 3 
   1      17.7215043170      0.0626302488
   2       3.8635505440      0.3333113849
   3       1.0480920883      0.7414863830
 P 1 
   1       0.2764154441      1.0000000000
 D 1 
   1       1.2000000000      1.0000000000
  end;

---------------------------------
AUXILIARY/J BASIS SET INFORMATION
---------------------------------
There are 2 groups of distinct atoms

 Group   1 Type C   : 12s5p4d2f1g contracted to 6s4p3d1f1g pattern {711111/2111/211/2/1}
 Group   2 Type O   : 12s5p4d2f1g contracted to 6s4p3d1f1g pattern {711111/2111/211/2/1}

Atom   0C    basis set group =>   1
Atom   1O    basis set group =>   2
Atom   2O    basis set group =>   2

-------------------------------------
AUXILIARY/J BASIS SET IN INPUT FORMAT
-------------------------------------

 # Auxiliary/J basis set for element : C 
 NewAuxJGTO C 
 S 7 
   1    1861.0916331000      0.0134602335
   2     642.9939764000      0.0299160374
   3     235.1105725000      0.1008649584
   4      90.7028894000      0.2370970548
   5      36.7794552000      0.3924037254
   6      15.6046273000      0.3195862154
   7       6.8907294000      0.0530104441
 S 1 
   1       3.1478850000     -1.0000000000
 S 1 
   1       1.4777287000      1.0000000000
 S 1 
   1       0.7076466000      1.0000000000
 S 1 
   1       0.3430122000      1.0000000000
 S 1 
   1       0.1669453000      1.0000000000
 P 2 
   1      13.5472892000     -0.6769313712
   2       5.4669419000     -0.3779500978
 P 1 
   1       2.1751721000      1.0000000000
 P 1 
   1       0.8582194000      1.0000000000
 P 1 
   1       0.3376720000      1.0000000000
 D 2 
   1       5.9287253000     -0.3533329857
   2       1.9809209000     -0.7456525731
 D 1 
   1       0.8055417000     -1.0000000000
 D 1 
   1       0.3531244000     -1.0000000000
 F 2 
   1       1.6755626000      0.6311076882
   2       0.5997536000      0.4968166032
 G 1 
   1       1.0024600000     -1.0000000000
  end;

 # Auxiliary/J basis set for element : O 
 NewAuxJGTO O 
 S 7 
   1    2876.8216605000      0.0168151159
   2    1004.7443032000      0.0340137548
   3     369.7579954000      0.1194951309
   4     142.9442404000      0.2664627624
   5      57.8366425000      0.4202764046
   6      24.3864983000      0.2765077335
   7      10.6622662000      0.0057008815
 S 1 
   1       4.8070437000     -1.0000000000
 S 1 
   1       2.2210770000      1.0000000000
 S 1 
   1       1.0447795000      1.0000000000
 S 1 
   1       0.4968425000      1.0000000000
 S 1 
   1       0.2371384000      1.0000000000
 P 2 
   1      64.2613382000     -0.2731534179
   2      16.3006076000     -0.8168011598
 P 1 
   1       4.3550542000      1.0000000000
 P 1 
   1       1.2019554000      1.0000000000
 P 1 
   1       0.3354196000      1.0000000000
 D 2 
   1       9.2146611000     -0.4661230638
   2       2.8435251000     -0.6600908911
 D 1 
   1       0.9955759000     -1.0000000000
 D 1 
   1       0.3649441000     -1.0000000000
 F 2 
   1       2.6420115000      0.5931563945
   2       0.7345613000      0.5931563945
 G 1 
   1       1.3931000000     -1.0000000000
  end;


Checking for AutoStart:
The File: job.gbw exists
Trying to determine its content:
     ... Fine, the file contains calculation information
     ... Fine, the calculation information was read
     ... Fine, the file contains a basis set
     ... Fine, the basis set was read
     ... Fine, the file contains a geometry
     ... Fine, the geometry was read
     ... Fine, the file contains a set of orbitals
     ... Fine, the orbitals can be read
     => possible old guess file was deleted
     => GBW file was renamed to GES file
     => GES file is set as startup file
     => Guess is set to MORead
     ... now leaving AutoStart

------------------------------------------------------------------------------
                             ORCA STARTUP CALCULATIONS
                           -- RI-GTO INTEGRALS CHOSEN --
------------------------------------------------------------------------------
------------------------------------------------------------------------------
                   ___                                                        
                  /   \      - P O W E R E D   B Y -                         
                 /     \                                                     
                 |  |  |   _    _      __       _____    __    __             
                 |  |  |  | |  | |    /  \     |  _  \  |  |  /  |          
                  \  \/   | |  | |   /    \    | | | |  |  | /  /          
                 / \  \   | |__| |  /  /\  \   | |_| |  |  |/  /          
                |  |  |   |  __  | /  /__\  \  |    /   |      \           
                |  |  |   | |  | | |   __   |  |    \   |  |\   \          
                \     /   | |  | | |  |  |  |  | |\  \  |  | \   \       
                 \___/    |_|  |_| |__|  |__|  |_| \__\ |__|  \__/        
                                                                              
                      - O R C A' S   B I G   F R I E N D -                    
                                      &                                       
                       - I N T E G R A L  F E E D E R -                       
                                                                              
 v1 FN, 2020, v2 2021, v3 2022-2024                                           
------------------------------------------------------------------------------


----------------------
SHARK INTEGRAL PACKAGE
----------------------

Number of atoms                             ...      3
Number of basis functions                   ...     42
Number of shells                            ...     18
Maximum angular momentum                    ...      2
Integral batch strategy                     ... SHARK/LIBINT Hybrid
RI-J (if used) integral strategy            ... SPLIT-RIJ (Revised 2003 algorithm where possible)
Printlevel                                  ...      1
Contraction scheme used                     ... SEGMENTED contraction
Prescreening option                         ... SCHWARTZ
   Thresh                                   ... 2.500e-11
   Tcut                                     ... 2.500e-12
   Tpresel                                  ... 2.500e-12 
Coulomb Range Separation                    ... NOT USED
Exchange Range Separation                   ... NOT USED
Multipole approximations                    ... NOT USED
Finite Nucleus Model                        ... NOT USED
CABS basis                                  ... NOT available
Auxiliary Coulomb fitting basis             ... AVAILABLE
   # of basis functions in Aux-J            ...    147
   # of shells in Aux-J                     ...     45
   Maximum angular momentum in Aux-J        ...      4
Auxiliary J/K fitting basis                 ... NOT available
Auxiliary Correlation fitting basis         ... NOT available
Auxiliary 'external' fitting basis          ... NOT available

Checking pre-screening integrals            ... done (  0.0 sec) Dimension = 18
Check shell pair data                       ... done (  0.0 sec)
Shell pair information
Shell pair cut-off parameter TPreSel        ...   2.5e-12
Total number of shell pairs                 ...       171
Shell pairs after pre-screening             ...       171
Total number of primitive shell pairs       ...       705
Primitive shell pairs kept                  ...       656
          la=0 lb=0:     45 shell pairs
          la=1 lb=0:     54 shell pairs
          la=1 lb=1:     21 shell pairs
          la=2 lb=0:     27 shell pairs
          la=2 lb=1:     18 shell pairs
          la=2 lb=2:      6 shell pairs

Calculating one electron integrals          ... done (  0.0 sec)
Calculating RI/J V-Matrix + Cholesky decomp.... done (  0.0 sec)
Calculating Nuclear repulsion               ... done (  0.0 sec) ENN=    107.622946659175 Eh

Diagonalization of the overlap matrix:
Smallest eigenvalue                        ... 1.244e-03
Time for diagonalization                   ...    0.000 sec
Threshold for overlap eigenvalues          ... 1.000e-07
Number of eigenvalues below threshold      ... 0
Time for construction of square roots      ...    0.000 sec
Total time needed                          ...    0.001 sec

-------------------
DFT GRID GENERATION
-------------------

General Integration Accuracy     IntAcc      ... 4.388
Radial Grid Type                 RadialGrid  ... OptM3 with GC (2021)
Angular Grid (max. ang.)         AngularGrid ... 4 (Lebedev-302)
Angular grid pruning method      GridPruning ... 4 (adaptive)
Weight generation scheme         WeightScheme... mBecke (2022)
Basis function cutoff            BFCut       ... 1.0000e-11
Integration weight cutoff        WCut        ... 1.0000e-14
Partially contracted basis set               ... off
Rotationally invariant grid construction     ... off
Angular grids for H and He will be reduced by one unit

Total number of grid points                  ...    18244
Total number of batches                      ...      287
Average number of points per batch           ...       63
Average number of grid points per atom       ...     6081

--------------------
COSX GRID GENERATION
--------------------

GRIDX 1
-------
General Integration Accuracy     IntAcc      ... 3.816
Radial Grid Type                 RadialGrid  ... OptM3 with GC (2021)
Angular Grid (max. ang.)         AngularGrid ... 1 (Lebedev-50)
Angular grid pruning method      GridPruning ... 4 (adaptive)
Weight generation scheme         WeightScheme... mBecke (2022)
Basis function cutoff            BFCut       ... 1.0000e-11
Integration weight cutoff        WCut        ... 1.0000e-14
Partially contracted basis set               ... on
Rotationally invariant grid construction     ... off
Angular grids for H and He will be reduced by one unit

Total number of grid points                  ...     2280
Total number of batches                      ...       19
Average number of points per batch           ...      120
Average number of grid points per atom       ...      760
UseSFitting                                  ... on

GRIDX 2
-------
General Integration Accuracy     IntAcc      ... 4.020
Radial Grid Type                 RadialGrid  ... OptM3 with GC (2021)
Angular Grid (max. ang.)         AngularGrid ... 2 (Lebedev-110)
Angular grid pruning method      GridPruning ... 4 (adaptive)
Weight generation scheme         WeightScheme... mBecke (2022)
Basis function cutoff            BFCut       ... 1.0000e-11
Integration weight cutoff        WCut        ... 1.0000e-14
Partially contracted basis set               ... on
Rotationally invariant grid construction     ... off
Angular grids for H and He will be reduced by one unit

Total number of grid points                  ...     5600
Total number of batches                      ...       45
Average number of points per batch           ...      124
Average number of grid points per atom       ...     1867
UseSFitting                                  ... on

GRIDX 3
-------
General Integration Accuracy     IntAcc      ... 4.338
Radial Grid Type                 RadialGrid  ... OptM3 with GC (2021)
Angular Grid (max. ang.)         AngularGrid ... 3 (Lebedev-194)
Angular grid pruning method      GridPruning ... 4 (adaptive)
Weight generation scheme         WeightScheme... mBecke (2022)
Basis function cutoff            BFCut       ... 1.0000e-11
Integration weight cutoff        WCut        ... 1.0000e-14
Partially contracted basis set               ... on
Rotationally invariant grid construction     ... off
Angular grids for H and He will be reduced by one unit

Total number of grid points                  ...    12496
Total number of batches                      ...      100
Average number of points per batch           ...      124
Average number of grid points per atom       ...     4165
UseSFitting                                  ... on
Initializing property integral containers    ... done (  0.0 sec)

SHARK setup successfully completed in   0.2 seconds

Maximum memory used throughout the entire STARTUP-calculation: 9.4 MB
-------------------------------------------------------------------------------
                                 ORCA GUESS
                   Start orbitals & Density for SCF / CASSCF
-------------------------------------------------------------------------------

------------
SCF SETTINGS
------------
Hamiltonian:
 Density Functional     Method          .... DFT(GTOs)
 Exchange Functional    Exchange        .... B88
   X-Alpha parameter    XAlpha          ....  0.666667
   Becke's b parameter  XBeta           ....  0.004200
 Correlation Functional Correlation     .... LYP
 LDA part of GGA corr.  LDAOpt          .... VWN-5
 Gradients option       PostSCFGGA      .... off
 Hybrid DFT is turned on
   Fraction HF Exchange ScalHFX         ....  0.200000
   Scaling of DF-GGA-X  ScalDFX         ....  0.720000
   Scaling of DF-GGA-C  ScalDFC         ....  0.810000
   Scaling of DF-LDA-C  ScalLDAC        ....  1.000000
   Perturbative correction              ....  0.000000
   NL short-range parameter             ....  4.800000
 RI-approximation to the Coulomb term is turned on
   Number of AuxJ basis functions       .... 147
   RIJ-COSX (HFX calculated with COS-X)).... on


General Settings:
 Integral files         IntName         .... job
 Hartree-Fock type      HFTyp           .... RHF
 Total Charge           Charge          ....    0
 Multiplicity           Mult            ....    1
 Number of Electrons    NEL             ....   22
 Basis Dimension        Dim             ....   42
 Nuclear Repulsion      ENuc            ....    107.6229466592 Eh

Convergence Acceleration:
 AO-DIIS                CNVDIIS         .... on
   Start iteration      DIISMaxIt       ....    12
   Startup error        DIISStart       ....  0.200000
   # of expansion vecs  DIISMaxEq       ....     5
   Bias factor          DIISBfac        ....   1.050
   Max. coefficient     DIISMaxC        ....  10.000
 MO-DIIS                CNVKDIIS        .... off
 Trust-Rad. Augm. Hess. CNVTRAH         .... auto
   Auto Start mean grad. ratio tolernc. ....  1.125000
   Auto Start start iteration           ....     1
   Auto Start num. interpolation iter.  ....    10
   Max. Number of Micro iterations      ....    24
   Max. Number of Macro iterations      .... Maxiter - #DIIS iter
   Number of Davidson start vectors     ....     2
   Converg. threshold    (grad. norm)   ....   1.000e-05
   Grad. Scal. Fac. for Micro threshold ....   0.100
   Minimum threshold for Micro iter.    ....   1.000e-02
   NR start threshold (gradient norm)   ....   1.000e-04
   Initial trust radius                 ....   0.400
   Minimum AH scaling param. (alpha)    ....   1.000
   Maximum AH scaling param. (alpha)    .... 1000.000
   Quad. conv. algorithm                .... NR
   White noise on init. David. guess    .... on
   Maximum white noise                  ....   0.010
   Pseudo random numbers                .... off
   Inactive MOs                         .... canonical
   Orbital update algorithm             .... Taylor
   Preconditioner                       .... Diag
   Full preconditioner red. dimension   ....   250
 SOSCF                  CNVSOSCF        .... on
   Start iteration      SOSCFMaxIt      ....   150
   Startup grad/error   SOSCFStart      ....  0.003300
   Hessian update       SOSCFHessUp     .... L-BFGS
 Level Shifting         CNVShift        .... on
   Level shift para.    LevelShift      ....    0.2500
   Turn off err/grad.   ShiftErr        ....    0.0010
 Zerner damping         CNVZerner       .... off
 Static damping         CNVDamp         .... on
   Fraction old density DampFac         ....    0.7000
   Max. Damping (<1)    DampMax         ....    0.9800
   Min. Damping (>=0)   DampMin         ....    0.0000
   Turn off err/grad.   DampErr         ....    0.1000

SCF Procedure:
 Maximum # iterations   MaxIter         ....   125
 SCF integral mode      SCFMode         .... Direct
   Integral package                     .... SHARK and LIBINT hybrid scheme
 Reset frequency        DirectResetFreq ....    20
 Integral Threshold     Thresh          ....  2.500e-11 Eh
 Primitive CutOff       TCut            ....  2.500e-12 Eh

Convergence Tolerance:
 Convergence Check Mode ConvCheckMode   .... Total+1el-Energy
 Convergence forced     ConvForced      .... 0
 Energy Change          TolE            ....  1.000e-08 Eh
 1-El. energy change                    ....  1.000e-05 Eh
 Orbital Gradient       TolG            ....  1.000e-05
 Orbital Rotation angle TolX            ....  1.000e-05
 DIIS Error             TolErr          ....  5.000e-07

---------------------
INITIAL GUESS: MOREAD
---------------------
Guess MOs are being read from file: job.ges
Input Geometry matches current geometry (good)
Input basis set matches current basis set (good)
Occupation numbers will be reassigned to an Aufbau configuration
MOs were renormalized
MOs were reorthogonalized (Cholesky)
                      ------------------
                      INITIAL GUESS DONE (   0.0 sec)
                      ------------------
----------------------
INITIAL GUESS ORBITALS
----------------------
                      0         1         2         3         4         5   
                 -19.18666 -19.18649 -10.67514  -1.28745  -1.19883  -0.94399
                   2.00000   2.00000   2.00000   2.00000   2.00000   2.00000
                  --------  --------  --------  --------  --------  --------
  0C   1s        -0.002256 -0.000076 -0.972359 -0.000008 -0.376531  0.000000
  0C   2s         0.037784  0.001273  0.075991 -0.000017 -0.004869  0.000000
  0C   3s        -0.004482 -0.000151  0.005269  0.000002  0.051389  0.000000
  0C   1pz        0.000000 -0.000000 -0.000000  0.000000 -0.000000 -0.213632
  0C   1px       -0.000287  0.008528  0.000001  0.776935 -0.000022  0.000000
  0C   1py       -0.000000 -0.000000 -0.000000  0.000000 -0.000000 -0.467843
  0C   2pz       -0.000000  0.000000  0.000000  0.000000 -0.000000 -0.049530
  0C   2px        0.000633 -0.018784  0.000000  0.070189 -0.000002 -0.000000
  0C   2py       -0.000000 -0.000000  0.000000  0.000000 -0.000000 -0.108469
  0C   1dz2       0.003487  0.000117 -0.006099  0.000004  0.044378 -0.000000
  0C   1dxz       0.000000 -0.000000 -0.000000 -0.000000  0.000000 -0.000000
  0C   1dyz      -0.000000 -0.000000  0.000000  0.000000 -0.000000  0.000000
  0C   1dx2y2    -0.006040 -0.000203  0.010563 -0.000006 -0.076866  0.000000
  0C   1dxy      -0.000000  0.000000  0.000000 -0.000000 -0.000000 -0.000001
  1O   1s         0.673467  0.720342 -0.026343  0.234519  0.202729 -0.000000
  1O   2s        -0.029181 -0.042027 -0.047275  0.186237  0.499120 -0.000000
  1O   3s        -0.003739  0.034448 -0.018811 -0.211887  0.161681 -0.000000
  1O   1pz       -0.000000  0.000000  0.000000  0.000000 -0.000000 -0.151079
  1O   1px        0.008202  0.009923  0.032584 -0.256064 -0.163638 -0.000000
  1O   1py        0.000000 -0.000000 -0.000000  0.000000 -0.000000 -0.330857
  1O   2pz        0.000000  0.000000 -0.000000  0.000000 -0.000000  0.006402
  1O   2px        0.007326 -0.001559  0.009586  0.121106 -0.041852  0.000000
  1O   2py       -0.000000  0.000000 -0.000000  0.000000  0.000000  0.014020
  1O   1dz2       0.001124  0.002397  0.003968 -0.028473  0.006575 -0.000000
  1O   1dxz       0.000000 -0.000000 -0.000000 -0.000000  0.000000  0.016815
  1O   1dyz       0.000000 -0.000000 -0.000000 -0.000000  0.000000 -0.000000
  1O   1dx2y2    -0.001946 -0.004151 -0.006874  0.049316 -0.011388  0.000000
  1O   1dxy       0.000000  0.000000  0.000000 -0.000000  0.000000  0.036823
  2O   1s         0.720439 -0.673363 -0.026344 -0.234509  0.202744 -0.000000
  2O   2s        -0.031944  0.039967 -0.047274 -0.186192  0.499133 -0.000000
  2O   3s        -0.001411 -0.034621 -0.018810  0.211899  0.161671 -0.000000
  2O   1pz       -0.000000 -0.000000 -0.000000 -0.000000 -0.000000 -0.151084
  2O   1px       -0.008852  0.009348 -0.032585 -0.256051  0.163648  0.000000
  2O   1py       -0.000000  0.000000 -0.000000 -0.000000 -0.000000 -0.330867
  2O   2pz        0.000000 -0.000000 -0.000000 -0.000000  0.000000  0.006401
  2O   2px       -0.007204 -0.002049 -0.009585  0.121111  0.041844 -0.000000
  2O   2py       -0.000000 -0.000000 -0.000000 -0.000000  0.000000  0.014019
  2O   1dz2       0.001283 -0.002316  0.003969  0.028473  0.006574 -0.000000
  2O   1dxz      -0.000000 -0.000000 -0.000000 -0.000000 -0.000000 -0.016816
  2O   1dyz       0.000000  0.000000 -0.000000  0.000000  0.000000 -0.000000
  2O   1dx2y2    -0.002222  0.004011 -0.006874 -0.049317 -0.011387  0.000000
  2O   1dxy       0.000000  0.000000 -0.000000 -0.000000 -0.000000 -0.036825
                      6         7         8         9        10        11   
                  -0.94399  -0.51824  -0.37193  -0.37193  -0.37019   0.15176
                   2.00000   2.00000   2.00000   2.00000   2.00000   0.00000
                  --------  --------  --------  --------  --------  --------
  0C   1s         0.000000  0.000003  0.000000 -0.000000 -0.276231 -0.060602
  0C   2s         0.000000 -0.000006  0.000000 -0.000000 -0.624964 -0.700025
  0C   3s         0.000000  0.000000  0.000000 -0.000000 -0.230410 -3.223212
  0C   1pz        0.467843  0.000000 -0.000002  0.000002 -0.000000  0.000000
  0C   1px       -0.000000  0.372580 -0.000000 -0.000000 -0.000003 -0.000001
  0C   1py       -0.213632  0.000000  0.000002  0.000002  0.000000  0.000000
  0C   2pz        0.108469  0.000000 -0.000002  0.000001  0.000000  0.000000
  0C   2px        0.000000 -0.116186  0.000000  0.000000  0.000000  0.000008
  0C   2py       -0.049530 -0.000000  0.000001  0.000002  0.000000 -0.000000
  0C   1dz2      -0.000000  0.000002 -0.000000  0.000000  0.074428 -0.045641
  0C   1dxz       0.000001 -0.000000 -0.014949  0.011528 -0.000000  0.000000
  0C   1dyz      -0.000000 -0.000000 -0.000000  0.000000 -0.000000 -0.000000
  0C   1dx2y2     0.000000 -0.000003  0.000000 -0.000000 -0.128914  0.079052
  0C   1dxy      -0.000000 -0.000000  0.011528  0.014949  0.000000  0.000000
  1O   1s        -0.000000 -0.084021  0.000000 -0.000000 -0.059069  0.088016
  1O   2s        -0.000000 -0.285869 -0.000000  0.000000  0.110431  0.032625
  1O   3s        -0.000000 -0.357009 -0.000000  0.000000  0.032946  1.901746
  1O   1pz        0.330857 -0.000000 -0.436325  0.336478 -0.000000  0.000000
  1O   1px       -0.000000 -0.425835  0.000000 -0.000000 -0.504787  0.033297
  1O   1py       -0.151079  0.000000  0.336478  0.436325  0.000000  0.000000
  1O   2pz       -0.014020 -0.000000 -0.269082  0.207506 -0.000000  0.000000
  1O   2px        0.000000 -0.076666  0.000000 -0.000000 -0.381995 -0.270302
  1O   2py        0.006402  0.000000  0.207506  0.269082  0.000000  0.000000
  1O   1dz2       0.000000 -0.023465 -0.000000  0.000000  0.000893 -0.011362
  1O   1dxz      -0.036823  0.000000  0.042819 -0.033020  0.000000  0.000000
  1O   1dyz       0.000000  0.000000 -0.000000  0.000000 -0.000000  0.000000
  1O   1dx2y2     0.000000  0.040643 -0.000000 -0.000000 -0.001546  0.019679
  1O   1dxy       0.016815 -0.000000 -0.033020 -0.042819 -0.000000 -0.000000
  2O   1s         0.000000  0.084018  0.000000 -0.000000 -0.059068  0.088017
  2O   2s        -0.000000  0.285876 -0.000000  0.000000  0.110433  0.032625
  2O   3s        -0.000000  0.357006 -0.000000  0.000000  0.032949  1.901774
  2O   1pz        0.330867  0.000000  0.436320 -0.336474  0.000000 -0.000000
  2O   1px        0.000000 -0.425836 -0.000000  0.000000  0.504789 -0.033297
  2O   1py       -0.151084 -0.000000 -0.336474 -0.436320 -0.000000  0.000000
  2O   2pz       -0.014019  0.000000  0.269080 -0.207504  0.000000 -0.000000
  2O   2px       -0.000000 -0.076667 -0.000000  0.000000  0.381996  0.270304
  2O   2py        0.006401 -0.000000 -0.207504 -0.269080 -0.000000  0.000000
  2O   1dz2      -0.000000  0.023465 -0.000000 -0.000000  0.000893 -0.011361
  2O   1dxz       0.036825  0.000000  0.042819 -0.033020  0.000000 -0.000000
  2O   1dyz       0.000000 -0.000000  0.000000 -0.000000 -0.000000  0.000000
  2O   1dx2y2     0.000000 -0.040642  0.000000  0.000000 -0.001547  0.019679
  2O   1dxy      -0.016816 -0.000000 -0.033020 -0.042819 -0.000000  0.000000
                     12        13        14        15        16        17   
                   0.23089   0.23089   0.31768   0.72210   0.78164   0.78164
                   0.00000   0.00000   0.00000   0.00000   0.00000   0.00000
                  --------  --------  --------  --------  --------  --------
  0C   1s         0.000000 -0.000000  0.000001  0.242993 -0.000000  0.000000
  0C   2s         0.000000 -0.000000  0.000007 -4.610045  0.000001 -0.000002
  0C   3s        -0.000000  0.000000  0.000015 -1.691654  0.000000 -0.000001
  0C   1pz       -0.198079 -0.131758  0.000000  0.000000  0.987636  0.586011
  0C   1px        0.000000  0.000000  0.099094  0.000007 -0.000000  0.000000
  0C   1py       -0.131758  0.198079 -0.000000  0.000001  0.586011 -0.987636
  0C   2pz        1.415962  0.941865 -0.000000  0.000000  1.270947  0.754113
  0C   2px        0.000000  0.000000  3.279421 -0.000012 -0.000000 -0.000000
  0C   2py        0.941865 -1.415962  0.000000  0.000001  0.754113 -1.270947
  0C   1dz2      -0.000000  0.000000  0.000000  0.040559 -0.000000  0.000000
  0C   1dxz      -0.000001 -0.000000  0.000000  0.000000 -0.000018 -0.000011
  0C   1dyz       0.000000  0.000000  0.000000 -0.000000  0.000000  0.000000
  0C   1dx2y2     0.000000 -0.000000 -0.000000 -0.070250  0.000000 -0.000000
  0C   1dxy      -0.000000  0.000001  0.000000 -0.000000 -0.000011  0.000018
  1O   1s         0.000000 -0.000000 -0.063417 -0.018095  0.000000 -0.000000
  1O   2s        -0.000000  0.000000  0.002099  0.174851 -0.000000  0.000000
  1O   3s         0.000000 -0.000000 -2.896058  2.591611 -0.000001  0.000001
  1O   1pz       -0.104224 -0.069328  0.000000 -0.000000 -0.176319 -0.104619
  1O   1px        0.000000 -0.000000 -0.153427  0.312913 -0.000000  0.000000
  1O   1py       -0.069328  0.104224 -0.000000 -0.000000 -0.104619  0.176319
  1O   2pz       -0.373774 -0.248626  0.000000 -0.000000 -1.171245 -0.694955
  1O   2px        0.000000 -0.000000 -0.005205 -1.708771  0.000000 -0.000001
  1O   2py       -0.248626  0.373774 -0.000000 -0.000000 -0.694955  1.171245
  1O   1dz2      -0.000000  0.000000  0.002555 -0.025460  0.000000 -0.000000
  1O   1dxz       0.024713  0.016439  0.000000 -0.000000 -0.065844 -0.039069
  1O   1dyz      -0.000000 -0.000000  0.000000 -0.000000  0.000000  0.000000
  1O   1dx2y2     0.000000 -0.000000 -0.004426  0.044099 -0.000000  0.000000
  1O   1dxy       0.016439 -0.024713  0.000000 -0.000000 -0.039069  0.065844
  2O   1s         0.000000 -0.000000  0.063416 -0.018096  0.000000 -0.000000
  2O   2s        -0.000000  0.000000 -0.002100  0.174859 -0.000000  0.000000
  2O   3s         0.000000 -0.000000  2.896033  2.591666 -0.000001  0.000001
  2O   1pz       -0.104224 -0.069328 -0.000000 -0.000000 -0.176288 -0.104600
  2O   1px       -0.000000  0.000000 -0.153430 -0.312911  0.000000 -0.000000
  2O   1py       -0.069328  0.104224  0.000000 -0.000000 -0.104600  0.176288
  2O   2pz       -0.373772 -0.248625 -0.000000 -0.000000 -1.171358 -0.695022
  2O   2px       -0.000000  0.000000 -0.005219  1.708807 -0.000000  0.000001
  2O   2py       -0.248625  0.373772  0.000000 -0.000000 -0.695022  1.171358
  2O   1dz2      -0.000000  0.000000 -0.002555 -0.025461  0.000000 -0.000000
  2O   1dxz      -0.024714 -0.016439  0.000000  0.000000  0.065840  0.039066
  2O   1dyz      -0.000000 -0.000000 -0.000000 -0.000000  0.000000  0.000000
  2O   1dx2y2     0.000000 -0.000000  0.004426  0.044100 -0.000000  0.000000
  2O   1dxy      -0.016439  0.024714  0.000000  0.000000  0.039066 -0.065840
                     18        19        20        21        22        23   
                   0.80996   0.80996   0.83665   1.22250   1.32622   1.32622
                   0.00000   0.00000   0.00000   0.00000   0.00000   0.00000
                  --------  --------  --------  --------  --------  --------
  0C   1s         0.000000 -0.000000  0.000001 -0.042545 -0.000000  0.000000
  0C   2s        -0.000000  0.000000 -0.000012  0.333344  0.000000 -0.000000
  0C   3s        -0.000000 -0.000000 -0.000002  3.216888  0.000000 -0.000001
  0C   1pz       -0.000009  0.000060  0.000000  0.000000  0.256407  0.050324
  0C   1px       -0.000000 -0.000000 -0.570696  0.000006  0.000000  0.000000
  0C   1py       -0.000060 -0.000009  0.000000 -0.000000  0.050324 -0.256407
  0C   2pz       -0.000010  0.000069  0.000000 -0.000000 -1.573705 -0.308866
  0C   2px        0.000000  0.000000  0.916384 -0.000008 -0.000000 -0.000000
  0C   2py       -0.000069 -0.000010  0.000000  0.000000 -0.308866  1.573705
  0C   1dz2      -0.000000  0.000000  0.000002  0.251079 -0.000000  0.000000
  0C   1dxz      -0.062576  0.439503  0.000000  0.000000  0.000001  0.000000
  0C   1dyz      -0.000000  0.000000 -0.000000  0.000000  0.000000  0.000000
  0C   1dx2y2     0.000000  0.000000 -0.000003 -0.434882 -0.000000  0.000000
  0C   1dxy      -0.439503 -0.062576  0.000000 -0.000000  0.000000 -0.000001
  1O   1s         0.000000  0.000000 -0.008170  0.217054 -0.000000 -0.000000
  1O   2s        -0.000000 -0.000000 -0.063342  2.063374  0.000000 -0.000000
  1O   3s         0.000002  0.000000  2.465034 -3.376275 -0.000000  0.000001
  1O   1pz       -0.050410  0.354056  0.000000 -0.000000 -0.776308 -0.152363
  1O   1px        0.000000  0.000000  0.124190  0.103246 -0.000000 -0.000000
  1O   1py       -0.354056 -0.050410  0.000000  0.000000 -0.152363  0.776308
  1O   2pz        0.160726 -1.128863 -0.000000  0.000000  1.255799  0.246472
  1O   2px       -0.000002 -0.000000 -2.628495  0.188164  0.000000 -0.000000
  1O   2py        1.128863  0.160726 -0.000001 -0.000000  0.246472 -1.255799
  1O   1dz2      -0.000000 -0.000000 -0.007505  0.013197 -0.000000  0.000000
  1O   1dxz      -0.008404  0.059026  0.000000 -0.000000 -0.104155 -0.020442
  1O   1dyz       0.000000 -0.000000  0.000000  0.000000  0.000000  0.000000
  1O   1dx2y2     0.000000  0.000000  0.013000 -0.022858 -0.000000  0.000000
  1O   1dxy      -0.059026 -0.008404  0.000000  0.000000 -0.020442  0.104155
  2O   1s        -0.000000 -0.000000  0.008171  0.217055 -0.000000 -0.000000
  2O   2s         0.000000 -0.000000  0.063350  2.063390  0.000000 -0.000000
  2O   3s        -0.000002 -0.000000 -2.465028 -3.376315 -0.000000  0.000001
  2O   1pz        0.050413 -0.354077 -0.000000 -0.000000 -0.776304 -0.152363
  2O   1px        0.000000  0.000000  0.124191 -0.103251 -0.000000  0.000000
  2O   1py        0.354077  0.050413 -0.000000  0.000000 -0.152363  0.776304
  2O   2pz       -0.160707  1.128729  0.000000  0.000000  1.255801  0.246472
  2O   2px       -0.000002 -0.000000 -2.628488 -0.188163 -0.000000  0.000000
  2O   2py       -1.128729 -0.160707  0.000001 -0.000000  0.246472 -1.255801
  2O   1dz2       0.000000  0.000000  0.007505  0.013198 -0.000000  0.000000
  2O   1dxz      -0.008405  0.059035  0.000000  0.000000  0.104156  0.020442
  2O   1dyz      -0.000000  0.000000 -0.000000  0.000000  0.000000  0.000000
  2O   1dx2y2    -0.000000 -0.000000 -0.012999 -0.022859 -0.000000  0.000000
  2O   1dxy      -0.059035 -0.008405  0.000000 -0.000000  0.020442 -0.104156
                     24        25        26        27        28        29   
                   1.37173   1.37173   1.59293   1.97935   2.55872   2.55873
                   0.00000   0.00000   0.00000   0.00000   0.00000   0.00000
                  --------  --------  --------  --------  --------  --------
  0C   1s         0.000000  0.000000  0.000001 -0.063241  0.000000  0.000000
  0C   2s        -0.000000 -0.000000 -0.000005  6.277095 -0.000000 -0.000000
  0C   3s        -0.000000 -0.000000 -0.000009  1.673715  0.000000  0.000000
  0C   1pz       -0.000000  0.000000 -0.000000 -0.000000  0.000000  0.000000
  0C   1px       -0.000000 -0.000000 -0.104947  0.000006  0.000000  0.000000
  0C   1py       -0.000000 -0.000000  0.000000 -0.000000  0.000000 -0.000000
  0C   2pz        0.000000 -0.000000  0.000000 -0.000000  0.000000 -0.000000
  0C   2px       -0.000000  0.000000 -3.333169  0.000008  0.000000  0.000000
  0C   2py        0.000000  0.000000 -0.000000  0.000000  0.000000 -0.000000
  0C   1dz2       0.000000 -0.740683  0.000000  0.351902 -0.000003 -0.000000
  0C   1dxz      -0.000000  0.000000  0.000000 -0.000000 -0.000000  0.000000
  0C   1dyz       0.855272  0.000000  0.000000  0.000000  0.000000  0.000003
  0C   1dx2y2     0.000000 -0.427634 -0.000001 -0.609512 -0.000002  0.000000
  0C   1dxy      -0.000000 -0.000000 -0.000000 -0.000000  0.000000  0.000000
  1O   1s        -0.000000 -0.000000 -0.214260 -0.155636  0.000000  0.000000
  1O   2s        -0.000000 -0.000000 -1.560851 -0.326826  0.000000  0.000000
  1O   3s         0.000000  0.000000  5.225347 -3.326492 -0.000000 -0.000000
  1O   1pz        0.000000 -0.000000  0.000000 -0.000000  0.000000 -0.000000
  1O   1px       -0.000000 -0.000000 -0.382060  0.729444 -0.000000  0.000000
  1O   1py        0.000000  0.000000  0.000000  0.000000 -0.000000 -0.000000
  1O   2pz       -0.000000  0.000000 -0.000000  0.000000  0.000000  0.000000
  1O   2px       -0.000000 -0.000000 -0.084204  1.265007 -0.000000  0.000000
  1O   2py       -0.000000 -0.000000  0.000000 -0.000000  0.000000 -0.000000
  1O   1dz2       0.000000 -0.121975  0.012997  0.023958 -0.622910  0.000000
  1O   1dxz       0.000000 -0.000000  0.000000 -0.000000  0.000000 -0.000000
  1O   1dyz       0.140841  0.000000  0.000000 -0.000000  0.000000  0.719274
  1O   1dx2y2     0.000000 -0.070422 -0.022512 -0.041496 -0.359637  0.000000
  1O   1dxy       0.000000  0.000000 -0.000000  0.000000 -0.000000 -0.000000
  2O   1s        -0.000000 -0.000000  0.214258 -0.155637  0.000000 -0.000000
  2O   2s        -0.000000 -0.000000  1.560840 -0.326831  0.000000 -0.000000
  2O   3s         0.000000  0.000000 -5.225325 -3.326554  0.000000  0.000000
  2O   1pz        0.000000 -0.000000  0.000000 -0.000000 -0.000000  0.000000
  2O   1px        0.000000  0.000000 -0.382065 -0.729443  0.000000  0.000000
  2O   1py        0.000000  0.000000 -0.000000  0.000000  0.000000  0.000000
  2O   2pz       -0.000000  0.000000 -0.000000  0.000000 -0.000000 -0.000000
  2O   2px        0.000000  0.000000 -0.084183 -1.265046  0.000000  0.000000
  2O   2py       -0.000000 -0.000000 -0.000000 -0.000000 -0.000000  0.000000
  2O   1dz2       0.000000 -0.121975 -0.012997  0.023961  0.622909 -0.000000
  2O   1dxz      -0.000000  0.000000  0.000000  0.000000 -0.000000 -0.000000
  2O   1dyz       0.140841  0.000000 -0.000000 -0.000000 -0.000000 -0.719273
  2O   1dx2y2     0.000000 -0.070422  0.022511 -0.041502  0.359637 -0.000000
  2O   1dxy      -0.000000 -0.000000 -0.000000 -0.000000 -0.000000  0.000000
                     30        31        32        33        34        35   
                   2.90473   2.90473   3.25722   3.29543   3.52741   3.52741
                   0.00000   0.00000   0.00000   0.00000   0.00000   0.00000
                  --------  --------  --------  --------  --------  --------
  0C   1s         0.000000 -0.000000  0.433217 -0.000079 -0.000000 -0.000000
  0C   2s        -0.000000  0.000000  8.557144 -0.001404 -0.000000  0.000000
  0C   3s         0.000000 -0.000000  1.240548 -0.000196 -0.000000 -0.000000
  0C   1pz       -0.000000 -0.000000 -0.000000 -0.000000 -0.000000 -0.000000
  0C   1px        0.000000 -0.000000 -0.000024 -0.093727  0.000000 -0.000000
  0C   1py       -0.000000  0.000000 -0.000000 -0.000000  0.000000 -0.000000
  0C   2pz        0.000000  0.000002  0.000000 -0.000000 -0.000000 -0.000000
  0C   2px       -0.000000  0.000000  0.000028  0.122491  0.000000  0.000000
  0C   2py        0.000002 -0.000000  0.000000  0.000000  0.000000 -0.000000
  0C   1dz2       0.000000  0.000000 -0.616977  0.000106 -0.877764  0.000000
  0C   1dxz       0.101334  0.412852  0.000000  0.000000  0.000000  0.000000
  0C   1dyz       0.000000  0.000000  0.000000  0.000000 -0.000000 -1.013551
  0C   1dx2y2    -0.000000  0.000000  1.068635 -0.000184 -0.506777  0.000000
  0C   1dxy       0.412852 -0.101334  0.000000  0.000000 -0.000000  0.000000
  1O   1s        -0.000000  0.000000 -0.004342  0.018717  0.000000 -0.000000
  1O   2s        -0.000000  0.000000 -2.236940  0.487668  0.000000 -0.000000
  1O   3s         0.000000 -0.000000 -3.003702 -2.350051 -0.000000 -0.000000
  1O   1pz       -0.084811 -0.345533 -0.000000 -0.000000 -0.000000 -0.000000
  1O   1px        0.000000 -0.000000  0.662797  0.028260 -0.000000  0.000000
  1O   1py       -0.345533  0.084811 -0.000000 -0.000000  0.000000 -0.000000
  1O   2pz        0.051158  0.208425 -0.000000  0.000000  0.000000  0.000000
  1O   2px       -0.000000  0.000000  1.426220  1.465573 -0.000000  0.000000
  1O   2py        0.208425 -0.051158 -0.000000 -0.000000 -0.000000  0.000000
  1O   1dz2       0.000000 -0.000000  0.371224  0.489228  0.789463 -0.000000
  1O   1dxz      -0.156681 -0.638346 -0.000000 -0.000000 -0.000000 -0.000000
  1O   1dyz      -0.000000 -0.000000 -0.000000  0.000000  0.000000  0.911594
  1O   1dx2y2     0.000000 -0.000000 -0.642980 -0.847368  0.455797 -0.000000
  1O   1dxy      -0.638346  0.156681  0.000000  0.000000  0.000000 -0.000000
  2O   1s         0.000000 -0.000000 -0.004350 -0.018716  0.000000 -0.000000
  2O   2s         0.000000 -0.000000 -2.237145 -0.486912  0.000000 -0.000000
  2O   3s        -0.000000  0.000000 -3.002928  2.351016  0.000000 -0.000000
  2O   1pz        0.084811  0.345536 -0.000000  0.000000 -0.000000 -0.000000
  2O   1px        0.000000 -0.000000 -0.662786  0.028479  0.000000 -0.000000
  2O   1py        0.345536 -0.084811 -0.000000  0.000000  0.000000 -0.000000
  2O   2pz       -0.051158 -0.208428 -0.000000  0.000000  0.000000  0.000000
  2O   2px       -0.000000  0.000000 -1.425734  1.466036  0.000000 -0.000000
  2O   2py       -0.208428  0.051158 -0.000000  0.000000 -0.000000  0.000000
  2O   1dz2      -0.000000  0.000000  0.371059 -0.489354  0.789468 -0.000000
  2O   1dxz      -0.156681 -0.638347 -0.000000  0.000000 -0.000000  0.000000
  2O   1dyz       0.000000  0.000000 -0.000000 -0.000000  0.000000  0.911600
  2O   1dx2y2    -0.000000  0.000000 -0.642694  0.847586  0.455800 -0.000000
  2O   1dxy      -0.638347  0.156681 -0.000000  0.000000 -0.000000 -0.000000
                     36        37        38        39        40        41   
                   4.15923   4.15923   4.42949   4.42949   6.44854   6.85467
                   0.00000   0.00000   0.00000   0.00000   0.00000   0.00000
                  --------  --------  --------  --------  --------  --------
  0C   1s         0.000000  0.000000 -0.000000  0.000000  0.613185 -0.000031
  0C   2s        -0.000000 -0.000000  0.000000 -0.000000-19.716011  0.001409
  0C   3s        -0.000000  0.000000 -0.000000  0.000000 -0.253782  0.000034
  0C   1pz        0.000008  0.000013  2.235539  0.828196  0.000000 -0.000000
  0C   1px       -0.000000  0.000000 -0.000000  0.000000 -0.000246 -5.432195
  0C   1py        0.000013 -0.000008  0.828196 -2.235539  0.000000 -0.000000
  0C   2pz        0.000001  0.000002  0.686693  0.254398 -0.000000 -0.000000
  0C   2px       -0.000000  0.000000 -0.000000  0.000000  0.000001 -0.058963
  0C   2py        0.000002 -0.000001  0.254398 -0.686693 -0.000000  0.000000
  0C   1dz2      -0.000000 -0.000000 -0.000000  0.000000  3.135420 -0.000202
  0C   1dxz      -1.351581 -2.328130 -0.000008 -0.000003 -0.000000  0.000000
  0C   1dyz      -0.000000 -0.000000 -0.000000 -0.000000 -0.000000  0.000000
  0C   1dx2y2     0.000000 -0.000000  0.000000 -0.000000 -5.430707  0.000349
  0C   1dxy      -2.328130  1.351581 -0.000003  0.000008 -0.000000  0.000000
  1O   1s         0.000000 -0.000000  0.000000 -0.000000 -0.120344  0.183825
  1O   2s        -0.000000  0.000000 -0.000000  0.000000  9.292501  3.531123
  1O   3s         0.000000 -0.000000  0.000000 -0.000000  3.258753  2.178280
  1O   1pz        0.743095  1.280000 -0.454877 -0.168518  0.000000 -0.000000
  1O   1px        0.000000 -0.000000 -0.000000  0.000000 -1.782710 -1.710649
  1O   1py        1.280000 -0.743095 -0.168518  0.454877  0.000000  0.000000
  1O   2pz        0.317623  0.547113 -0.947977 -0.351196  0.000000 -0.000000
  1O   2px       -0.000000  0.000000 -0.000000  0.000000 -1.755719 -1.228506
  1O   2py        0.547113 -0.317623 -0.351196  0.947977  0.000000  0.000000
  1O   1dz2      -0.000000  0.000000 -0.000000  0.000000  0.265113 -0.278562
  1O   1dxz      -0.491600 -0.846793  1.071004  0.396773 -0.000000  0.000000
  1O   1dyz       0.000000  0.000000  0.000000  0.000000  0.000000  0.000000
  1O   1dx2y2    -0.000000  0.000000  0.000000 -0.000000 -0.459189  0.482484
  1O   1dxy      -0.846793  0.491600  0.396773 -1.071004 -0.000000 -0.000000
  2O   1s        -0.000000  0.000000  0.000000 -0.000000 -0.120371 -0.183806
  2O   2s         0.000000 -0.000000 -0.000000  0.000000  9.292210 -3.532393
  2O   3s        -0.000000  0.000000  0.000000 -0.000000  3.258595 -2.178795
  2O   1pz       -0.743103 -1.280013 -0.454897 -0.168525  0.000000  0.000000
  2O   1px        0.000000 -0.000000  0.000000 -0.000000  1.782479 -1.710890
  2O   1py       -1.280013  0.743103 -0.168525  0.454897  0.000000 -0.000000
  2O   2pz       -0.317627 -0.547119 -0.947990 -0.351200  0.000000 -0.000000
  2O   2px       -0.000000  0.000000  0.000000 -0.000000  1.755599 -1.228764
  2O   2py       -0.547119  0.317627 -0.351200  0.947990  0.000000 -0.000000
  2O   1dz2       0.000000 -0.000000 -0.000000  0.000000  0.265147  0.278521
  2O   1dxz      -0.491592 -0.846780 -1.071018 -0.396778 -0.000000 -0.000000
  2O   1dyz      -0.000000 -0.000000  0.000000  0.000000  0.000000 -0.000000
  2O   1dx2y2     0.000000 -0.000000  0.000000 -0.000000 -0.459249 -0.482412
  2O   1dxy      -0.846780  0.491592 -0.396778  1.071018  0.000000 -0.000000
             **** ENERGY FILE WAS UPDATED (job.en.tmp) ****
Finished Guess after   0.0 sec
Maximum memory used throughout the entire GUESS-calculation: 5.8 MB

-------------------------------------------------------------------------------------------
                                      ORCA LEAN-SCF
                              memory conserving SCF solver
-------------------------------------------------------------------------------------------

----------------------------------------D-I-I-S--------------------------------------------
Iteration    Energy (Eh)           Delta-E    RMSDP     MaxDP     DIISErr   Damp  Time(sec)
-------------------------------------------------------------------------------------------
               ***  Starting incremental Fock matrix formation  ***
                              *** Initializing SOSCF ***
---------------------------------------S-O-S-C-F--------------------------------------
Iteration    Energy (Eh)           Delta-E    RMSDP     MaxDP     MaxGrad    Time(sec)
--------------------------------------------------------------------------------------
    1    -183.2737332551309919     0.00e+00  1.25e-07  8.90e-07  6.50e-08     0.2

                         ----------------------------
                         !        ITERATION     0   !
                         ----------------------------
   Total Energy        :    -183.273733255131 Eh
   Energy Change       :     183.273733255131 Eh
   MAX-DP              :       0.000000890364
   RMS-DP              :       0.000000124514
   Orbital gradient    :       0.000000064952
   Orbital Rotation    :       0.000000064952
   alpha HOMO          :      -0.3702 Eh
   alpha LUMO          :       0.1518 Eh
   Int. Num. El.       :    21.99999620 (UP=   10.99999810 DN=   10.99999810)
   Exchange            :   -18.78020607 Eh
   Correlation         :    -0.99934815 Eh

               *** Restarting incremental Fock matrix formation ***
    2    -183.2737332551340046    -3.01e-12  7.06e-08  4.73e-07  1.96e-07     0.2
                  *** Gradient check signals convergence ***

                         ----------------------------
                         !        ITERATION     1   !
                         ----------------------------
   Total Energy        :    -183.273733255134 Eh
   Energy Change       :       0.000000000003 Eh
   MAX-DP              :       0.000000473059
   RMS-DP              :       0.000000070593
   Orbital gradient    :       0.000000196426
   Orbital Rotation    :       0.000000164252
   alpha HOMO          :      -0.3702 Eh
   alpha LUMO          :       0.1518 Eh
   Int. Num. El.       :    21.99999620 (UP=   10.99999810 DN=   10.99999810)
   Exchange            :   -18.78020759 Eh
   Correlation         :    -0.99934819 Eh


               *****************************************************
               *                     SUCCESS                       *
               *           SCF CONVERGED AFTER   2 CYCLES          *
               *****************************************************

Recomputing exchange energy using gridx3       ... done (    0.220 sec)
Old exchange energy                            :     -4.730141069 Eh
New exchange energy                            :     -4.730127942 Eh
Exchange energy change after final integration :      0.000013126 Eh
Total energy after final integration           :   -183.273720129 Eh
             **** ENERGY FILE WAS UPDATED (job.en.tmp) ****

----------------
TOTAL SCF ENERGY
----------------

Total Energy       :       -183.27372012888816 Eh           -4987.13147 eV

Components:
Nuclear Repulsion  :        107.62294665917534 Eh            2928.56926 eV
Electronic Energy  :       -290.89667991430929 Eh           -7915.70109 eV
One Electron Energy:       -457.55352945699730 Eh          -12450.66452 eV
Two Electron Energy:        166.65684954268798 Eh            4534.96343 eV

Virial components:
Potential Energy   :       -386.36710213009917 Eh          -10513.58335 eV
Kinetic Energy     :        203.09338200121101 Eh            5526.45188 eV
Virial Ratio       :          1.90241108953415

DFT components:
N(Alpha)           :       10.999998099623 electrons
N(Beta)            :       10.999998099623 electrons
N(Total)           :       21.999996199246 electrons
E(X)               :      -18.780207590282 Eh       
E(C)               :       -0.999348193702 Eh       
E(XC)              :      -19.779555783985 Eh       

---------------
SCF CONVERGENCE
---------------

  Last Energy change         ...    3.0127e-12  Tolerance :   1.0000e-08
  Last MAX-Density change    ...    4.7306e-07  Tolerance :   1.0000e-07
  Last RMS-Density change    ...    7.0593e-08  Tolerance :   5.0000e-09
  Last DIIS Error            ...    5.9897e-07  Tolerance :   5.0000e-07
  Last Orbital Gradient      ...    1.9643e-07  Tolerance :   1.0000e-05
  Last Orbital Rotation      ...    1.6425e-07  Tolerance :   1.0000e-05


----------------
ORBITAL ENERGIES
----------------

  NO   OCC          E(Eh)            E(eV) 
   0   2.0000     -19.186660      -522.0956 
   1   2.0000     -19.186485      -522.0908 
   2   2.0000     -10.675137      -290.4852 
   3   2.0000      -1.287447       -35.0332 
   4   2.0000      -1.198831       -32.6219 
   5   2.0000      -0.943988       -25.6872 
   6   2.0000      -0.943988       -25.6872 
   7   2.0000      -0.518244       -14.1021 
   8   2.0000      -0.371928       -10.1207 
   9   2.0000      -0.371928       -10.1207 
  10   2.0000      -0.370185       -10.0733 
  11   0.0000       0.151760         4.1296 
  12   0.0000       0.230894         6.2829 
  13   0.0000       0.230894         6.2829 
  14   0.0000       0.317683         8.6446 
  15   0.0000       0.722097        19.6493 
  16   0.0000       0.781645        21.2696 
  17   0.0000       0.781645        21.2696 
  18   0.0000       0.809961        22.0402 
  19   0.0000       0.809961        22.0402 
  20   0.0000       0.836652        22.7665 
  21   0.0000       1.222497        33.2658 
  22   0.0000       1.326218        36.0882 
  23   0.0000       1.326218        36.0882 
  24   0.0000       1.371725        37.3265 
  25   0.0000       1.371726        37.3266 
  26   0.0000       1.592929        43.3458 
  27   0.0000       1.979354        53.8609 
  28   0.0000       2.558721        69.6263 
  29   0.0000       2.558730        69.6266 
  30   0.0000       2.904734        79.0418 
  31   0.0000       2.904734        79.0418 
  32   0.0000       3.257224        88.6336 
  33   0.0000       3.295431        89.6732 
  34   0.0000       3.527409        95.9857 
  35   0.0000       3.527413        95.9858 
  36   0.0000       4.159233       113.1785 
  37   0.0000       4.159233       113.1785 
  38   0.0000       4.429491       120.5326 
  39   0.0000       4.429491       120.5326 
  40   0.0000       6.448540       175.4737 
  41   0.0000       6.854671       186.5251 
------------------
MOLECULAR ORBITALS (RHF, ROHF)
------------------
                      0         1         2         3         4         5   
                 -19.18666 -19.18649 -10.67514  -1.28745  -1.19883  -0.94399
                   2.00000   2.00000   2.00000   2.00000   2.00000   2.00000
                  --------  --------  --------  --------  --------  --------
  0C   1s         0.002256  0.000076 -0.972359  0.000008 -0.376531  0.000000
  0C   2s        -0.037784 -0.001273  0.075992  0.000017 -0.004869  0.000000
  0C   3s         0.004482  0.000151  0.005269 -0.000002  0.051389  0.000000
  0C   1pz       -0.000000  0.000000 -0.000000 -0.000000 -0.000000 -0.217203
  0C   1px        0.000287 -0.008528  0.000001 -0.776936 -0.000022  0.000000
  0C   1py        0.000000  0.000000 -0.000000 -0.000000 -0.000000 -0.466196
  0C   2pz        0.000000 -0.000000  0.000000 -0.000000 -0.000000 -0.050358
  0C   2px       -0.000633  0.018784  0.000000 -0.070189 -0.000002 -0.000000
  0C   2py        0.000000  0.000000  0.000000 -0.000000 -0.000000 -0.108087
  0C   1dz2      -0.003487 -0.000117 -0.006099 -0.000004  0.044378 -0.000000
  0C   1dxz      -0.000000  0.000000 -0.000000  0.000000  0.000000 -0.000000
  0C   1dyz       0.000000  0.000000  0.000000  0.000000 -0.000000  0.000000
  0C   1dx2y2     0.006040  0.000203  0.010563  0.000006 -0.076866  0.000000
  0C   1dxy       0.000000 -0.000000  0.000000  0.000000 -0.000000 -0.000001
  1O   1s        -0.673475 -0.720334 -0.026343 -0.234519  0.202729 -0.000000
  1O   2s         0.029182  0.042027 -0.047275 -0.186237  0.499120 -0.000000
  1O   3s         0.003739 -0.034448 -0.018811  0.211887  0.161681 -0.000000
  1O   1pz        0.000000 -0.000000  0.000000 -0.000000 -0.000000 -0.153605
  1O   1px       -0.008203 -0.009923  0.032584  0.256064 -0.163638 -0.000000
  1O   1py       -0.000000  0.000000 -0.000000 -0.000000 -0.000000 -0.329692
  1O   2pz       -0.000000 -0.000000 -0.000000 -0.000000 -0.000000  0.006509
  1O   2px       -0.007326  0.001560  0.009586 -0.121106 -0.041852  0.000000
  1O   2py        0.000000 -0.000000 -0.000000 -0.000000  0.000000  0.013971
  1O   1dz2      -0.001124 -0.002397  0.003968  0.028473  0.006575 -0.000000
  1O   1dxz      -0.000000  0.000000 -0.000000  0.000000  0.000000  0.017096
  1O   1dyz      -0.000000  0.000000 -0.000000  0.000000  0.000000 -0.000000
  1O   1dx2y2     0.001947  0.004151 -0.006874 -0.049316 -0.011388  0.000000
  1O   1dxy      -0.000000 -0.000000  0.000000  0.000000  0.000000  0.036694
  2O   1s        -0.720431  0.673371 -0.026344  0.234509  0.202744 -0.000000
  2O   2s         0.031944 -0.039967 -0.047274  0.186191  0.499133 -0.000000
  2O   3s         0.001412  0.034621 -0.018810 -0.211899  0.161671 -0.000000
  2O   1pz        0.000000  0.000000 -0.000000  0.000000 -0.000000 -0.153610
  2O   1px        0.008852 -0.009349 -0.032585  0.256051  0.163649  0.000000
  2O   1py        0.000000 -0.000000 -0.000000  0.000000 -0.000000 -0.329702
  2O   2pz       -0.000000  0.000000 -0.000000  0.000000  0.000000  0.006508
  2O   2px        0.007204  0.002049 -0.009585 -0.121111  0.041844 -0.000000
  2O   2py        0.000000  0.000000 -0.000000  0.000000  0.000000  0.013969
  2O   1dz2      -0.001283  0.002316  0.003969 -0.028473  0.006574 -0.000000
  2O   1dxz       0.000000  0.000000 -0.000000  0.000000 -0.000000 -0.017097
  2O   1dyz      -0.000000 -0.000000 -0.000000 -0.000000  0.000000 -0.000000
  2O   1dx2y2     0.002222 -0.004011 -0.006874  0.049317 -0.011387  0.000000
  2O   1dxy      -0.000000 -0.000000 -0.000000  0.000000 -0.000000 -0.036696
                      6         7         8         9        10        11   
                  -0.94399  -0.51824  -0.37193  -0.37193  -0.37019   0.15176
                   2.00000   2.00000   2.00000   2.00000   2.00000   0.00000
                  --------  --------  --------  --------  --------  --------
  0C   1s         0.000000  0.000003 -0.000000 -0.000000 -0.276231 -0.060602
  0C   2s         0.000000 -0.000006 -0.000000 -0.000000 -0.624963 -0.700025
  0C   3s         0.000000  0.000000 -0.000000 -0.000000 -0.230410 -3.223211
  0C   1pz        0.466196  0.000000  0.000002  0.000002 -0.000000  0.000000
  0C   1px       -0.000000  0.372580  0.000000 -0.000000 -0.000003 -0.000001
  0C   1py       -0.217203  0.000000 -0.000002  0.000002  0.000000  0.000000
  0C   2pz        0.108087  0.000000  0.000002  0.000001 -0.000000  0.000000
  0C   2px        0.000000 -0.116186 -0.000000  0.000000  0.000000  0.000008
  0C   2py       -0.050358 -0.000000 -0.000001  0.000002  0.000000 -0.000000
  0C   1dz2      -0.000000  0.000002  0.000000  0.000000  0.074428 -0.045641
  0C   1dxz       0.000001 -0.000000  0.014992  0.011471 -0.000000  0.000000
  0C   1dyz      -0.000000 -0.000000  0.000000  0.000000  0.000000 -0.000000
  0C   1dx2y2     0.000000 -0.000003 -0.000000 -0.000000 -0.128914  0.079052
  0C   1dxy      -0.000000 -0.000000 -0.011471  0.014992  0.000000  0.000000
  1O   1s        -0.000000 -0.084021 -0.000000 -0.000000 -0.059069  0.088016
  1O   2s        -0.000000 -0.285870  0.000000  0.000000  0.110431  0.032625
  1O   3s        -0.000000 -0.357009  0.000000  0.000000  0.032946  1.901746
  1O   1pz        0.329692 -0.000000  0.437589  0.334832 -0.000000  0.000000
  1O   1px       -0.000000 -0.425835 -0.000000 -0.000000 -0.504787  0.033297
  1O   1py       -0.153605  0.000000 -0.334832  0.437589  0.000000  0.000000
  1O   2pz       -0.013971 -0.000000  0.269862  0.206491 -0.000000  0.000000
  1O   2px        0.000000 -0.076666 -0.000000 -0.000000 -0.381995 -0.270302
  1O   2py        0.006509  0.000000 -0.206491  0.269862  0.000000  0.000000
  1O   1dz2       0.000000 -0.023465 -0.000000  0.000000  0.000893 -0.011362
  1O   1dxz      -0.036694  0.000000 -0.042943 -0.032859  0.000000  0.000000
  1O   1dyz       0.000000  0.000000  0.000000  0.000000 -0.000000  0.000000
  1O   1dx2y2     0.000000  0.040643  0.000000 -0.000000 -0.001546  0.019679
  1O   1dxy       0.017096 -0.000000  0.032859 -0.042943 -0.000000 -0.000000
  2O   1s         0.000000  0.084018 -0.000000 -0.000000 -0.059068  0.088017
  2O   2s        -0.000000  0.285876  0.000000  0.000000  0.110433  0.032625
  2O   3s        -0.000000  0.357006  0.000000  0.000000  0.032949  1.901773
  2O   1pz        0.329702  0.000000 -0.437585 -0.334829  0.000000 -0.000000
  2O   1px        0.000000 -0.425836  0.000000  0.000000  0.504789 -0.033297
  2O   1py       -0.153610 -0.000000  0.334829 -0.437585 -0.000000  0.000000
  2O   2pz       -0.013969  0.000000 -0.269859 -0.206489  0.000000 -0.000000
  2O   2px       -0.000000 -0.076667  0.000000  0.000000  0.381996  0.270304
  2O   2py        0.006508 -0.000000  0.206489 -0.269859 -0.000000  0.000000
  2O   1dz2      -0.000000  0.023465  0.000000 -0.000000  0.000893 -0.011361
  2O   1dxz       0.036696  0.000000 -0.042943 -0.032859  0.000000 -0.000000
  2O   1dyz       0.000000 -0.000000 -0.000000 -0.000000 -0.000000  0.000000
  2O   1dx2y2     0.000000 -0.040642 -0.000000  0.000000 -0.001547  0.019679
  2O   1dxy      -0.017097 -0.000000  0.032859 -0.042943 -0.000000  0.000000
                     12        13        14        15        16        17   
                   0.23089   0.23089   0.31768   0.72210   0.78164   0.78164
                   0.00000   0.00000   0.00000   0.00000   0.00000   0.00000
                  --------  --------  --------  --------  --------  --------
  0C   1s        -0.000000  0.000000  0.000001  0.242993  0.000000 -0.000000
  0C   2s        -0.000000  0.000000  0.000007 -4.610044 -0.000001  0.000002
  0C   3s         0.000000 -0.000000  0.000015 -1.691655 -0.000000  0.000001
  0C   1pz        0.194959  0.136332  0.000000  0.000000 -0.970655 -0.613729
  0C   1px       -0.000000 -0.000000  0.099094  0.000007  0.000000 -0.000000
  0C   1py        0.136332 -0.194959 -0.000000  0.000001 -0.613729  0.970655
  0C   2pz       -1.393659 -0.974563 -0.000000  0.000000 -1.249094 -0.789782
  0C   2px       -0.000000 -0.000000  3.279421 -0.000012  0.000000  0.000000
  0C   2py       -0.974563  1.393659  0.000000  0.000001 -0.789782  1.249094
  0C   1dz2       0.000000 -0.000000  0.000000  0.040559  0.000000 -0.000000
  0C   1dxz       0.000001  0.000000  0.000000  0.000000  0.000018  0.000011
  0C   1dyz      -0.000000 -0.000000  0.000000 -0.000000 -0.000000 -0.000000
  0C   1dx2y2    -0.000000  0.000000 -0.000000 -0.070250 -0.000000  0.000000
  0C   1dxy       0.000000 -0.000001  0.000000 -0.000000  0.000011 -0.000018
  1O   1s        -0.000000  0.000000 -0.063417 -0.018095 -0.000000  0.000000
  1O   2s         0.000000 -0.000000  0.002099  0.174851  0.000000 -0.000000
  1O   3s        -0.000000  0.000000 -2.896058  2.591612  0.000001 -0.000001
  1O   1pz        0.102583  0.071735  0.000000 -0.000000  0.173288  0.109567
  1O   1px       -0.000000  0.000000 -0.153427  0.312913  0.000000 -0.000000
  1O   1py        0.071735 -0.102583 -0.000000 -0.000000  0.109567 -0.173288
  1O   2pz        0.367887  0.257257  0.000000 -0.000000  1.151106  0.727826
  1O   2px       -0.000000  0.000000 -0.005205 -1.708771 -0.000000  0.000001
  1O   2py        0.257257 -0.367887 -0.000000 -0.000000  0.727826 -1.151106
  1O   1dz2       0.000000 -0.000000  0.002555 -0.025460 -0.000000  0.000000
  1O   1dxz      -0.024324 -0.017009  0.000000 -0.000000  0.064712  0.040916
  1O   1dyz       0.000000  0.000000  0.000000 -0.000000 -0.000000 -0.000000
  1O   1dx2y2    -0.000000  0.000000 -0.004426  0.044099  0.000000 -0.000000
  1O   1dxy      -0.017009  0.024324  0.000000 -0.000000  0.040916 -0.064712
  2O   1s        -0.000000  0.000000  0.063416 -0.018096 -0.000000  0.000000
  2O   2s         0.000000 -0.000000 -0.002100  0.174859  0.000000 -0.000000
  2O   3s        -0.000000  0.000000  2.896033  2.591666  0.000001 -0.000001
  2O   1pz        0.102583  0.071734 -0.000000 -0.000000  0.173257  0.109548
  2O   1px        0.000000 -0.000000 -0.153430 -0.312911 -0.000000  0.000000
  2O   1py        0.071734 -0.102583  0.000000 -0.000000  0.109548 -0.173257
  2O   2pz        0.367885  0.257256 -0.000000 -0.000000  1.151217  0.727896
  2O   2px        0.000000 -0.000000 -0.005219  1.708807  0.000000 -0.000001
  2O   2py        0.257256 -0.367885  0.000000 -0.000000  0.727896 -1.151217
  2O   1dz2       0.000000 -0.000000 -0.002555 -0.025461 -0.000000  0.000000
  2O   1dxz       0.024325  0.017010  0.000000  0.000000 -0.064708 -0.040914
  2O   1dyz       0.000000  0.000000 -0.000000 -0.000000 -0.000000 -0.000000
  2O   1dx2y2    -0.000000  0.000000  0.004426  0.044100  0.000000 -0.000000
  2O   1dxy       0.017010 -0.024325  0.000000  0.000000 -0.040914  0.064708
                     18        19        20        21        22        23   
                   0.80996   0.80996   0.83665   1.22250   1.32622   1.32622
                   0.00000   0.00000   0.00000   0.00000   0.00000   0.00000
                  --------  --------  --------  --------  --------  --------
  0C   1s        -0.000000 -0.000000  0.000001 -0.042545  0.000000 -0.000000
  0C   2s         0.000000  0.000000 -0.000012  0.333343 -0.000000  0.000000
  0C   3s         0.000000 -0.000000 -0.000002  3.216888 -0.000000  0.000001
  0C   1pz        0.000010  0.000060  0.000000  0.000000 -0.255532 -0.054592
  0C   1px        0.000000 -0.000000 -0.570696  0.000006 -0.000000 -0.000000
  0C   1py        0.000060 -0.000010  0.000000 -0.000000 -0.054592  0.255532
  0C   2pz        0.000012  0.000069  0.000000 -0.000000  1.568337  0.335061
  0C   2px       -0.000000  0.000000  0.916383 -0.000008  0.000000  0.000000
  0C   2py        0.000069 -0.000012  0.000000  0.000000  0.335061 -1.568337
  0C   1dz2       0.000000  0.000000  0.000002  0.251079  0.000000 -0.000000
  0C   1dxz       0.076049  0.437373  0.000000  0.000000 -0.000001 -0.000000
  0C   1dyz       0.000000  0.000000 -0.000000  0.000000 -0.000000 -0.000000
  0C   1dx2y2    -0.000000  0.000000 -0.000003 -0.434882  0.000000 -0.000000
  0C   1dxy       0.437373 -0.076049  0.000000 -0.000000 -0.000000  0.000001
  1O   1s        -0.000000  0.000000 -0.008170  0.217054  0.000000  0.000000
  1O   2s         0.000000 -0.000000 -0.063342  2.063374 -0.000000  0.000000
  1O   3s        -0.000002  0.000000  2.465034 -3.376275  0.000000 -0.000001
  1O   1pz        0.061264  0.352341  0.000000 -0.000000  0.773659  0.165285
  1O   1px       -0.000000  0.000000  0.124190  0.103246 -0.000000  0.000000
  1O   1py        0.352341 -0.061264  0.000000  0.000000  0.165285 -0.773659
  1O   2pz       -0.195332 -1.123393 -0.000000  0.000000 -1.251515 -0.267375
  1O   2px        0.000002 -0.000000 -2.628495  0.188164 -0.000000  0.000000
  1O   2py       -1.123393  0.195332 -0.000001 -0.000000 -0.267375  1.251515
  1O   1dz2       0.000000 -0.000000 -0.007505  0.013197  0.000000 -0.000000
  1O   1dxz       0.010214  0.058740  0.000000 -0.000000  0.103800  0.022176
  1O   1dyz      -0.000000 -0.000000  0.000000  0.000000 -0.000000 -0.000000
  1O   1dx2y2    -0.000000  0.000000  0.013000 -0.022858  0.000000 -0.000000
  1O   1dxy       0.058740 -0.010214  0.000000  0.000000  0.022176 -0.103800
  2O   1s         0.000000 -0.000000  0.008171  0.217055  0.000000  0.000000
  2O   2s        -0.000000 -0.000000  0.063350  2.063390 -0.000000  0.000000
  2O   3s         0.000002 -0.000000 -2.465029 -3.376314  0.000000 -0.000001
  2O   1pz       -0.061267 -0.352361 -0.000000 -0.000000  0.773656  0.165285
  2O   1px       -0.000000  0.000000  0.124191 -0.103251  0.000000 -0.000000
  2O   1py       -0.352361  0.061267 -0.000000  0.000000  0.165285 -0.773656
  2O   2pz        0.195308  1.123259  0.000000  0.000000 -1.251517 -0.267375
  2O   2px        0.000002 -0.000000 -2.628488 -0.188163  0.000000 -0.000000
  2O   2py        1.123259 -0.195308  0.000001 -0.000000 -0.267375  1.251517
  2O   1dz2      -0.000000  0.000000  0.007505  0.013198  0.000000 -0.000000
  2O   1dxz       0.010215  0.058749  0.000000  0.000000 -0.103801 -0.022176
  2O   1dyz       0.000000  0.000000 -0.000000  0.000000 -0.000000 -0.000000
  2O   1dx2y2     0.000000 -0.000000 -0.012999 -0.022859  0.000000 -0.000000
  2O   1dxy       0.058749 -0.010215  0.000000 -0.000000 -0.022176  0.103801
                     24        25        26        27        28        29   
                   1.37173   1.37173   1.59293   1.97935   2.55872   2.55873
                   0.00000   0.00000   0.00000   0.00000   0.00000   0.00000
                  --------  --------  --------  --------  --------  --------
  0C   1s        -0.000000  0.000000  0.000001 -0.063241  0.000000 -0.000000
  0C   2s         0.000000 -0.000000 -0.000005  6.277095 -0.000000 -0.000000
  0C   3s         0.000000 -0.000000 -0.000009  1.673715  0.000000  0.000000
[...]

------------------------------------------------------------------------------
                            ORCA SCF RESPONSE CALCULATION
------------------------------------------------------------------------------

GBWName                                 ... job.gbw
Number of atoms                         ...      3
Number of basis functions               ...     42
Max core memory                         ...   1024 MB

Electric field perturbation             ... YES
Quadrupolar field perturbation          ...  NO
Magnetic field perturbation (no GIAO)   ...  NO
Magnetic field perturbation (with GIAO) ...  NO
Linear momentum (velocity) perturbation ...  NO
Spin-orbit coupling perturbation        ...  NO
Choice of electric origin               ... Center of mass
Position of electric origin             ...     0.000000    -0.000000     0.000000
Choice of magnetic origin               ... GIAO
Position of magnetic origin             ...     0.000000     0.000000     0.000000
Nuclear geometric perturbations         ... YES (   9 perturbations)
Nucleus-orbit perturbations             ...  NO (   0 perturbations)
Spin-dipole/Fermi contact perturbations ...  NO (   0 perturbations)

Total number of real perturbations      ...     12
Total number of imaginary perturbations ...      0
Total number of triplet perturbations   ...      0
Total number of SOC perturbations       ...      0


                                **********************
                                * REAL PERTURBATIONS *
                                **********************



-------------------
SHARK CP-SCF DRIVER
-------------------

Dimension of the orbital basis          ...     42
Dimension of the CPSCF-problem          ...    341
Number of operators                     ...      1
Max. number of iterations               ...    128
Convergence Tolerance                   ... 1.0e-04
Number of perturbations                 ...     12
Perturbation type                       ... REAL

----------------------------
POPLE LINEAR EQUATION SOLVER
----------------------------

  ITERATION   0:   ||err||_max =   7.3685e-01 (   0.1 sec   0/ 12 done)
  ITERATION   1:   ||err||_max =   6.7387e-02 (   0.1 sec   0/ 12 done)
  ITERATION   2:   ||err||_max =   8.9765e-03 (   0.1 sec   0/ 12 done)
  ITERATION   3:   ||err||_max =   1.6528e-03 (   0.1 sec   8/ 12 done)
  ITERATION   4:   ||err||_max =   2.9161e-04 (   0.1 sec  10/ 12 done)
  ITERATION   5:   ||err||_max =   2.8260e-05 (   0.1 sec  12/ 12 done)

CP-SCF equations solved in   0.6 sec
Response densities calculated in   0.0 sec

Maximum memory used throughout the entire SCFRESP-calculation: 7.0 MB

------------------------------------------------------------------------------
                              ORCA PROPERTY CALCULATIONS
------------------------------------------------------------------------------

GBWName                                 ... job.gbw
Number of atoms                         ...      3
Number of basis functions               ...     42
Max core memory                         ...   1024 MB

Electric properties:
Dipole moment                           ... YES
Quadrupole moment                       ...  NO
Static polarizability (Dipole/Dipole)   ... YES
Static polarizability (Dipole/Quad.)    ...  NO
Static polarizability (Quad./Quad.)     ...  NO
Static polarizability (Velocity)        ...  NO

Atomic electric properties:
Dipole moment                           ...  NO
Quadrupole moment                       ...  NO
Static polarizability                   ...  NO

Choice of electric origin               ... Center of mass
Position of electric origin             ...     0.000000    -0.000000     0.000000

General magnetic properties:
Magnetizability                         ...  NO

EPR properties:
g-Tensor (aka g-matrix)                 ...  NO
Zero-Field splitting spin-orbit         ...  NO
Zero-field splitting spin-spin          ...  NO
Hyperfine couplings                     ...  NO (   0 nuclei)
Quadrupole couplings                    ...  NO (   0 nuclei)
Contact density                         ...  NO (   0 nuclei)

NMR properties:
Chemical shifts                         ...  NO (   0 nuclei)
Spin-rotation constants                 ...  NO (   0 nuclei)
Spin-spin couplings                     ...  NO (   0 nuclei,    0 pairs)

Choice of magnetic origin               ... GIAO
Position of magnetic origin             ...     0.000000     0.000000     0.000000

Properties with geometric perturbations:
SCF Hessian                             ... YES
IR spectrum                             ... YES
VCD spectrum                            ...  NO
X-ray spectroscopy properties:
SCF XES/XAS/RIXS spectra                ...  NO


-------------
DIPOLE MOMENT
-------------

Method             : SCF
Type of density    : Electron Density
Multiplicity       :   1
Irrep              :   0
Energy             :  -183.2737201288881579 Eh
Relativity type    : 
Basis              : AO
                                X                 Y                 Z
Electronic contribution:     -0.000018798       0.000000065       0.000000003
Nuclear contribution   :      0.000000023      -0.000000000      -0.000000000
                        -----------------------------------------
Total Dipole Moment    :     -0.000018775       0.000000065       0.000000003
                        -----------------------------------------
Magnitude (a.u.)       :      0.000018775
Magnitude (Debye)      :      0.000047723



--------------------
Rotational spectrum 
--------------------
 
Rotational constants in cm-1:             0.000000             1.330031             1.330031 
Rotational constants in MHz :             0.000000         39873.313393         39873.313393 

Dipole components along the rotational axes: 
x,y,z [a.u.] :    -0.000019    -0.000000     0.000000 
x,y,z [Debye]:    -0.000048    -0.000000     0.000000 

 

Dipole moment calculation done in   0.0 sec 


---------------------------------------------------
STATIC POLARIZABILITY TENSOR (Dipole/Dipole)
---------------------------------------------------

Method             : SCF
Type of density    : Electron Density
Type of derivative : Electric Field (Direction=X)
Multiplicity       :   1
Irrep              :   0
Relativity type    : 
Basis              : AO

The raw cartesian tensor (atomic units):
       8.422541183         0.000000001        -0.000000012  
       0.000000001         4.215084176        -0.000000001  
      -0.000000012        -0.000000001         4.215084174  
diagonalized tensor: 
       4.215084173         4.215084176         8.422541183  

Orientation: 
       0.000000003         0.000000002         1.000000000  
       0.407914103        -0.913020309         0.000000000  
       0.913020309         0.407914103        -0.000000003  

Isotropic polarizability :   5.61757


Polarizability tensor calculation done in   0.0 sec 

-----------
SCF HESSIAN
-----------

Occupied/Occupied contributions to the Hessian:
   => Occupied/Occupied contributions              ... done (  0.0 sec)
Perturbed density contributions to the Hessian:
   => Perturbed density contributions              ... done (  0.0 sec)
Explicit contributions to the Hessian:
   => Nuclear repulsion Hessian                    ... done (  0.0 sec)
   => HCore and overlap Hessian                    ... done (  0.0 sec)
   => RI-J Hessian                                 ... done (  0.2 sec)
   => COSX Hessian                                 ... done ( 10.7 sec)
   => XC-Hessian                                   ... done (  0.7 sec)
   => Explicit contributions done
E-field response densities           ... done
Dipole derivatives                                 ... done (  0.0 sec)
Mass weighting the Hessian           ... done
Calculating normal modes             ... done
Scaling frequencies                  ... done

-----------------------
VIBRATIONAL FREQUENCIES
-----------------------

Scaling factor for frequencies =  1.000000000  (already applied!)

     0:       0.00 cm**-1
     1:       0.00 cm**-1
     2:       0.00 cm**-1
     3:       0.00 cm**-1
     4:       0.00 cm**-1
     5:   -6193.40 cm**-1  ***imaginary mode***
     6:   -6193.40 cm**-1  ***imaginary mode***
     7:    7058.42 cm**-1
     8:   13502.64 cm**-1


------------
NORMAL MODES
------------

These modes are the Cartesian displacements weighted by the diagonal matrix
M(i,i)=1/sqrt(m[i]) where m[i] is the mass of the displaced atom
Thus, these vectors are normalized but *not* orthogonal

                  0          1          2          3          4          5    
      0       0.000000   0.000000   0.000000   0.000000   0.000000   0.000000
      1       0.000000   0.000000   0.000000   0.000000   0.000000  -0.743201
      2       0.000000   0.000000   0.000000   0.000000   0.000000  -0.477288
      3       0.000000   0.000000   0.000000   0.000000   0.000000   0.000000
      4       0.000000   0.000000   0.000000   0.000000   0.000000   0.278972
      5       0.000000   0.000000   0.000000   0.000000   0.000000   0.179158
      6       0.000000   0.000000   0.000000   0.000000   0.000000  -0.000000
      7       0.000000   0.000000   0.000000   0.000000   0.000000   0.278975
      8       0.000000   0.000000   0.000000   0.000000   0.000000   0.179159
                  6          7          8    
      0       0.000000   0.000012   0.883262
      1      -0.477288  -0.000000   0.000000
      2       0.743201   0.000000   0.000000
      3       0.000000  -0.707111  -0.331540
      4       0.179158   0.000000   0.000000
      5      -0.278972  -0.000000   0.000000
      6      -0.000000   0.707102  -0.331555
      7       0.179159   0.000000  -0.000000
      8      -0.278975  -0.000000  -0.000000


-----------
IR SPECTRUM
-----------

 Mode   freq       eps      Int      T**2         TX        TY        TZ
       cm**-1   L/(mol*cm) km/mol    a.u.
----------------------------------------------------------------------------
  7:   7058.42   0.000000    0.00  0.000000  ( 0.000001 -0.000000  0.000000)
  8:  13502.64   0.266578  1347.18  0.006161  ( 0.078492  0.000000 -0.000000)

* The epsilon (eps) is given for a Dirac delta lineshape.
** The dipole moment derivative (T) already includes vibrational overlap.

The first frequency considered to be a vibration is 7
The total number of vibrations considered is 2


--------------------------
THERMOCHEMISTRY AT 298.15K
--------------------------

Temperature         ...   298.15 K
Pressure            ...     1.00 atm
Total Mass          ...    44.01 AMU
Quasi RRHO          ...     True
Cut-Off Frequency   ...     1.00 cm^-1
The molecule is recognized as being linear

Throughout the following assumptions are being made:
  (1) The electronic state is orbitally nondegenerate
  (2) There are no thermally accessible electronically excited states
  (3) Hindered rotations indicated by low frequency modes are not
      treated as such but are treated as vibrations and this may
      cause some error
  (4) All equations used are the standard statistical mechanics
      equations for an ideal gas
  (5) All vibrations are strictly harmonic

freq.    7058.42  E(vib)   ...       0.00 
freq.   13502.64  E(vib)   ...       0.00 

------------
INNER ENERGY
------------

The inner energy is: U= E(el) + E(ZPE) + E(vib) + E(rot) + E(trans)
    E(el)   - is the total energy from the electronic structure calculation
              = E(kin-el) + E(nuc-el) + E(el-el) + E(nuc-nuc)
    E(ZPE)  - the the zero temperature vibrational energy from the frequency calculation
    E(vib)  - the the finite temperature correction to E(ZPE) due to population
              of excited vibrational states
    E(rot)  - is the rotational thermal energy
    E(trans)- is the translational thermal energy

Summary of contributions to the inner energy U:
Electronic energy                ...   -183.27372013 Eh
Zero point energy                ...      0.04684156 Eh      29.39 kcal/mol
Thermal vibrational correction   ...      0.00000000 Eh       0.00 kcal/mol
Thermal rotational correction    ...      0.00094418 Eh       0.59 kcal/mol
Thermal translational correction ...      0.00141627 Eh       0.89 kcal/mol
-----------------------------------------------------------------------
Total thermal energy                   -183.22451812 Eh


Summary of corrections to the electronic energy:
(perhaps to be used in another calculation)
Total thermal correction                  0.00236045 Eh       1.48 kcal/mol
Non-thermal (ZPE) correction              0.04684156 Eh      29.39 kcal/mol
-----------------------------------------------------------------------
Total correction                          0.04920201 Eh      30.87 kcal/mol


--------
ENTHALPY
--------

The enthalpy is H = U + kB*T
                kB is Boltzmann's constant
Total thermal energy              ...   -183.22451812 Eh 
Thermal Enthalpy correction       ...      0.00094421 Eh       0.59 kcal/mol
-----------------------------------------------------------------------
Total Enthalpy                    ...   -183.22357391 Eh


Note: Rotational entropy computed according to Herzberg 
Infrared and Raman Spectra, Chapter V,1, Van Nostrand Reinhold, 1945 
Point Group:  D(inf)h, Symmetry Number:   1  
Rotational constants in cm-1:     0.000000     1.330031     1.330031 

Vibrational entropy computed according to the QRRHO of S. Grimme
Chem.Eur.J. 2012 18 9955 using a reference frequency of 100.0 cm-1


-------
ENTROPY
-------

The entropy contributions are T*S = T*(S(el)+S(vib)+S(rot)+S(trans))
     S(el)   - electronic entropy
     S(vib)  - vibrational entropy
     S(rot)  - rotational entropy
     S(trans)- translational entropy
The entropies will be listed as multiplied by the temperature to get
units of energy

Electronic entropy                ...      0.00000000 Eh      0.00 kcal/mol
Vibrational entropy               ...     -0.00000000 Eh     -0.00 kcal/mol
Rotational entropy                ...      0.00571098 Eh      3.58 kcal/mol
Translational entropy             ...      0.01770880 Eh     11.11 kcal/mol
-----------------------------------------------------------------------
Final entropy term                ...      0.02341978 Eh     14.70 kcal/mol


-------------------
GIBBS FREE ENERGY
-------------------

The Gibbs free energy is G = H - T*S

Total enthalpy                    ...   -183.22357391 Eh 
Total entropy correction          ...     -0.02341978 Eh    -14.70 kcal/mol
-----------------------------------------------------------------------
Final Gibbs free energy         ...   -183.24699369 Eh

For completeness - the Gibbs free energy minus the electronic energy
G-E(el)                           ...      0.02672644 Eh     16.77 kcal/mol


Maximum memory used throughout the entire PROP-calculation: 10.1 MB

--------------------------------
SUGGESTED CITATIONS FOR THIS RUN
--------------------------------

Below you find a list of papers that are relevant to this ORCA run
We neither can nor want to force you to cite these papers, but we appreciate if you do
You receive ORCA, which is the product of decades of hard work by many enthusiastic individuals, for free
The only thing we kindly ask in return is that you cite our papers,
We deeply appreciate it, if you show your appreciation for ORCA by not just citing the generic ORCA reference.

Please note that relegating all ORCA citations to the supporting information does *not* help us.
SI sections are not indexed - citations you put there will not count into any citation statistics
But we need these citations in order to attract the funding resources that allow us to do what we are doing

Therefore, if you are a happy ORCA user, please consider citing a few of the papers listed below in the main body of your paper

In addition to the list printed below, the program has created the file job.bibtex that contains the list in bibtex format
You can import this file easily into all common literature databanks and citation aid programs


List of essential papers. We consider these as the minimum necessary citations

  1. Neese,F.
     Software update: the ORCA program system, version 5.0
     WIRES Comput. Molec. Sci., 2022 12(1)e1606
     doi.org/10.1002/wcms.1606

List of papers to cite with high priority. The work reported in these papers was absolutely
necessary for this run to complete.
Our perspective: the developers of density functionals and basis sets usually get cited in chemistry papers
Good! But without the algorithms to do something with them, the functionals or basis sets would not do anything.
Hence, in our opinion, the algorithm design and method developments papers are equally worthy of getting cited

  1. Neese,F.
     An improvement of the resolution of the identity approximation for the formation of the Coulomb matrix
     J. Comp. Chem., 2003 24(14)1740-1747
     doi.org/10.1002/jcc.10318
  2. Neese,F.; Wennmohs,F.; Hansen,A.; Becker,U.
     Efficient, approximate and parallel Hartree-Fock and hybrid DFT calculations. A 'chain-of-spheres' algorithm for the Hartree-Fock exchange
     Chem. Phys., 2009 356(1-3)98-109
     doi.org/10.1016/j.chemphys.2008.10.036
  3. Bykov,D.; Petrenko,T.; Izsak,R.; Kossmann,S.; Becker,U.; Valeev,E.; Neese,F.
     Efficient implementation of the analytic second derivatives of Hartree-Fock and hybrid DFT energies: a detailed analysis of different approximations
     Molec. Phys., 2015 113 1961-1977
     doi.org/10.1080/00268976.2015.1025114
  4. Helmich-Paris,B.; de Souza,B.; Neese,F.; Izsák,R.
     An improved chain of spheres for exchange algorithm
     J. Chem. Phys., 2021 155 104109
     doi.org/doi: 10.1063/5.0058766.
  5. Neese,F.
     The SHARK Integral Generation and Digestion System
     J. Comp. Chem., 2022  1-16
     doi.org/10.1002/jcc.26942

List of suggested additional citations. These are papers that are important in the 'surrounding' of 
of this run, or papers that preceded the highly important papers. If you like your results we are grateful for a citation.

  1. Izsak,R.; Neese,F.
     An overlap fitted chain of spheres exchange method
     J. Chem. Phys., 2011 135 144105
     doi.org/10.1063/1.3646921
  2. Izsak,R.; Hansen,A.; Neese,F.
     The resolution of identity and chain of spheres approximations for the LPNO-CCSD singles Fock term
     Molec. Phys., 2012 110 2413-2417
     doi.org/10.1080/00268976.2012.687466
  3. Neese,F.
     The ORCA program system
     WIRES Comput. Molec. Sci., 2012 2(1)73-78
     doi.org/10.1002/wcms.81
  4. Izsak,R.; Neese,F.; Klopper,W.
     Robust fitting techniques in the chain of spheres approximation to the Fock exchange: The role of the complementary space
     J. Chem. Phys., 2013 139 
     doi.org/10.1063/1.4819264
  5. Neese,F.
     Software update: the ORCA program system, version 4.0
     WIRES Comput. Molec. Sci., 2018 8(1)1-6
     doi.org/10.1002/wcms.1327
  6. Neese,F.; Wennmohs,F.; Becker,U.; Riplinger,C.
     The ORCA quantum chemistry program package
     J. Chem. Phys., 2020 152 Art. No. L224108
     doi.org/10.1063/5.0004608

List of optional additional citations

  1. Neese,F.
     Approximate second-order SCF convergence for spin unrestricted wavefunctions
     Chem. Phys. Lett., 2000 325(1-3)93-98
     doi.org/10.1016/s0009-2614(00)00662-x

Timings for individual modules:

Sum of individual times          ...       14.818 sec (=   0.247 min)
Startup calculation              ...        0.194 sec (=   0.003 min)   1.3 %
SCF iterations                   ...        0.662 sec (=   0.011 min)   4.5 %
Property integrals               ...        1.598 sec (=   0.027 min)  10.8 %
SCF Response                     ...        0.656 sec (=   0.011 min)   4.4 %
Property calculations            ...       11.708 sec (=   0.195 min)  79.0 %
                             ****ORCA TERMINATED NORMALLY****
TOTAL RUN TIME: 0 days 0 hours 0 minutes 14 seconds 873 msec
