
                                 *****************
                                 * O   R   C   A *
                                 *****************

                                            #,                                       
                                            ###                                      
                                            ####                                     
                                            #####                                    
                                            ######                                   
                                           ########,                                 
                                     ,,################,,,,,                         
                               ,,#################################,,                 
                          ,,##########################################,,             
                       ,#########################################, ''#####,          
                    ,#############################################,,   '####,        
                  ,##################################################,,,,####,       
                ,###########''''           ''''###############################       
              ,#####''   ,,,,##########,,,,          '''####'''          '####       
            ,##' ,,,,###########################,,,                        '##       
           ' ,,###''''                  '''############,,,                           
         ,,##''                                '''############,,,,        ,,,,,,###''
      ,#''                                            '''#######################'''  
     '                                                          ''''####''''         
             ,#######,   #######,   ,#######,      ##                                
            ,#'     '#,  ##    ##  ,#'     '#,    #''#        ,####,   ,####,        
            ##       ##  ##   ,#'  ##            #'  '#       #'       #'  '#        
            ##       ##  #######   ##           ,######,      #####,   #    #        
            '#,     ,#'  ##    ##  '#,     ,#' ,#      #,     #,   #   #,  ,#        
             '#######'   ##     ##  '#######'  #'      '#     '####' # '####'        



                #########################################################
                #                        -***-                          #
                #          Department of theory and spectroscopy        #
                #                                                       #
                #                      Frank Neese                      #
                #                                                       #
                #     Directorship, Architecture, Infrastructure        #
                #                    SHARK, DRIVERS                     #
                #        Core code/Algorithms in most modules           #
                #                                                       #
                #        Max Planck Institute fuer Kohlenforschung      #
                #                Kaiser Wilhelm Platz 1                 #
                #                 D-45470 Muelheim/Ruhr                 #
                #                      Germany                          #
                #                                                       #
                #                  All rights reserved                  #
                #                        -***-                          #
                #########################################################


                         Program Version 6.0.1  -  RELEASE   -


 With contributions from (in alphabetic order):
[Max-Planck-Institut fuer Kohlenforschung]                               
  Daniel Aravena         : Magnetic Suceptibility                        
  Michael Atanasov       : Ab Initio Ligand Field Theory (pilot matlab implementation)
  Alexander A. Auer      : GIAO ZORA, VPT2 properties, NMR spectrum      
  Ute Becker             : All parallelization in ORCA, NUMFREQ, NUMCALC 
  Giovanni Bistoni       : ED, misc. LED, open-shell LED, HFLD           
  Martin Brehm           : Molecular dynamics                            
  Dmytro Bykov           : pre 5.0 version of the SCF Hessian            
  Marcos Casanova-Páez   : Triplet and SCS-CIS(D). UHF-(DLPNO)-IP/EA/STEOM-CCSD. UHF-CVS-IP/STEOM-CCSD   
  Vijay G. Chilkuri      : MRCI spin determinant printing, contributions to CSF-ICE 
  Pauline Colinet        : FMM embedding                                 
  Dipayan Datta          : RHF DLPNO-CCSD density                        
  Achintya Kumar Dutta   : EOM-CC, STEOM-CC                              
  Nicolas Foglia         : Exact transition moments, OPA infrastructure, MCD improvements    
  Dmitry Ganyushin       : Spin-Orbit,Spin-Spin,Magnetic field MRCI      
  Miquel Garcia-Rates    : C-PCM and meta-GGA Hessian, CCSD/C-PCM, Gaussian charge scheme 
  Tiago L. C. Gouveia    : GS-ROHF, GS-ROCIS                             
  Yang Guo               : DLPNO-NEVPT2, F12-NEVPT2, CIM, IAO-localization        
  Andreas Hansen         : Spin unrestricted coupled pair/coupled cluster methods 
  Ingolf Harden          : AUTO-CI MPn and infrastructure                
  Benjamin Helmich-Paris : MC-RPA, TRAH-(SCF,CASSCF), AVAS, COSX integrals, SCF dyn. polar. 
  Lee Huntington         : MR-EOM, pCC                                   
  Robert Izsak           : Overlap fitted RIJCOSX, COSX-SCS-MP3, EOM     
  Riya Kayal             : Wick's Theorem for AUTO-CI, AUTO-CI UHF-CCSDT 
  Emily Kempfer          : AUTO-CI, RHF CISDT and CCSDT                  
  Christian Kollmar      : KDIIS, OOCD, Brueckner-CCSD(T), CCSD density, CASPT2, CASPT2-K, improved NEVPT2 
  Axel Koslowski         : Symmetry handling                             
  Simone Kossmann        : meta-GGA functionals, TD-DFT gradient, OOMP2, (MP2 Hessian; deprecated post 5.0) 
  Lucas Lang             : DCDCAS                                        
  Marvin Lechner         : AUTO-CI (C++ implementation), FIC-MRCC        
  Spencer Leger          : CASSCF response                               
  Dagmar Lenk            : GEPOL surface, SMD, ORCA-2-JSON               
  Dimitrios Liakos       : Extrapolation schemes; Compound Job, initial MDCI parallelization 
  Dimitrios Manganas     : Further ROCIS development; embedding schemes. LFT, Crystal Embedding 
  Dimitrios Pantazis     : SARC Basis sets                               
  Anastasios Papadopoulos: AUTO-CI, single reference methods and gradients 
  Taras Petrenko         : pre 6.0 DFT Hessian and TD-DFT gradient, (ASA, deprecated), ECA, 1-Electron XAS/XES, NRVS 
  Peter Pinski           : DLPNO-MP2, DLPNO-MP2 Gradient                 
  Christoph Reimann      : Effective Core Potentials                     
  Marius Retegan         : Local ZFS, SOC                                
  Christoph Riplinger    : Optimizer, TS searches, QM/MM, DLPNO-CCSD(T), (RO)-DLPNO pert. Triples 
  Michael Roemelt        : Original ROCIS implementation                 
  Masaaki Saitow         : Open-shell DLPNO-CCSD energy and density      
  Barbara Sandhoefer     : DKH picture change effects                    
  Kantharuban Sivalingam : CASSCF convergence/infrastructure, NEVPT2 and variants, FIC-MRCI 
  Bernardo de Souza      : ESD, SOC TD-DFT                               
  Georgi L. Stoychev     : AutoAux, RI-MP2 NMR, DLPNO-MP2 response, X2C  
  Van Anh Tran           : RI-MP2 g-tensors                              
  Willem Van den Heuvel  : Paramagnetic NMR                              
  Zikuan Wang            : NOTCH, Electric field optimization            
  Frank Wennmohs         : Technical directorship and infrastructure     
  Hang Xu                : AUTO-CI-Response properties                   
                                                                         
[FACCTs GmbH]                                                            
  Markus Bursch, Miquel Garcia-Rates, Christoph Riplinger, Bernardo de Souza, Georgi L. Stoychev 
                                                                 
  APM, Basis sets (HGBS, AHGBS, def-TZVP (Ac-Lr), def2-XVPD (La-Lu)), CI-OPT, improved COSX, DLPNO-Multilevel,           
  DOCKER, DRACO, updates on ESD, GOAT, IRC, LR-CPCM, MBIS, meta-GGA TD-DFT gradient, ML-optimized integration grids, 
  MM, NACMEs, nearIR, NEB, NEB-TS, NL-DFT gradient (VV10), 2- and 3-layer-ONIOM, interface openCOSMO-RS, QMMM,   
  Crystal-QMMM, SF, symmetry and pop. for TD-DFT, r2SCAN hybrids, SOLVATOR                                   
                                                                         
[Other institutions]                                                     
  V. Asgeirsson          : NEB                                           
  Christoph Bannwarth    : sTDA-DFT, sTD-DFT, PBEh-3c, B97-3c, D3        
  Sebastian Ehlert       : rSCAN, r2SCAN, r2SCAN-3c, D4, dhf basis sets  
  Marvin Friede          : D4 for Fr, Ra, Ac-Lr                          
  Lars Goerigk           : TD-DFT with DH, B97 family of functionals     
  Stefan Grimme          : VdW corrections, initial TS optimization, DFT functionals, gCP, sTDA/sTD-DF 
  Waldemar Hujo          : DFT-NL                                        
  H. Jonsson             : NEB                                           
  Holger Kruse           : gCP                                           
  Marcel Mueller         : wB97X-3c, vDZP basis set                      
  Hagen Neugebauer       : wr2SCAN                                       
  Tobias Risthaus        : range-separated hybrid DFT                    
  Lukas Wittmann         : regularized MP2, r2SCAN double-hybrids, wr2SCAN        
                                                                         
We gratefully acknowledge several colleagues who have allowed us to      
interface, adapt or use parts of their codes:                            
  Ed Valeev, F. Pavosevic, A. Kumar             : LibInt (2-el integral package), F12 methods 
  Garnet Chan, S. Sharma, J. Yang, R. Olivares  : DMRG                   
  Ulf Ekstrom                                   : XCFun DFT Library      
  Mihaly Kallay                                 : mrcc  (arbitrary order and MRCC methods)
  Frank Weinhold                                : gennbo (NPA and NBO analysis)           
  Simon Mueller                                 : openCOSMO-RS                            
  Christopher J. Cramer and Donald G. Truhlar   : smd solvation model                     
  S Lehtola, MJT Oliveira, MAL Marques          : LibXC Library                           
  Liviu Ungur et al                             : ANISO software                          


 Your calculation uses the libint2 library for the computation of 2-el integrals
 For citations please refer to: http://libint.valeyev.net

 Your ORCA version has been built with support for libXC version: 6.2.2
 For citations please refer to: https://libxc.gitlab.io

 This ORCA versions uses:
   CBLAS   interface :  Fast vector & matrix operations
   LAPACKE interface :  Fast linear algebra routines
   SCALAPACK package :  Parallel linear algebra routines
   Shared memory     :  Shared parallel matrices
   BLAS/LAPACK       :  OpenBLAS 0.3.27  USE64BITINT DYNAMIC_ARCH NO_AFFINITY SkylakeX SINGLE_THREADED
        Core in use  :  SkylakeX
   Copyright (c) 2011-2014, The OpenBLAS Project


Warning: RI is on but no J-basis has been assigned. Assigning Def2/J (nothing to worry about!)
================================================================================

----- Orbital basis set information -----
Your calculation utilizes the basis: def2-SVP
   F. Weigend and R. Ahlrichs, Phys. Chem. Chem. Phys. 7, 3297 (2005).

----- AuxJ basis set information -----
Your calculation utilizes the auxiliary basis: def2/J
   F. Weigend, Phys. Chem. Chem. Phys. 8, 1057 (2006).

================================================================================
                                        WARNINGS
                       Please study these warnings very carefully!
================================================================================

WARNING: Old DensityContainer found on disk!
         Will remove this file - 
         If you want to keep old densities, please start your calculation with a different basename. 


WARNING: Analytical Hessian not available for calculation of RAMAN spectra
       : If you need RAMAN spectra, please choose NumFreq!
       : Will only calculate polarizabilties



================================================================================
                                       INPUT FILE
================================================================================
NAME = job.inp
|  1> ! B3LYP def2-SVP TightSCF Freq
|  2> %output
|  3>   PrintLevel 5
|  4> end
|  5> * xyz 0 1
|  6>    C         -0.0000014014          0.0000000192          0.0000000015
|  7>    O          0.6155937128         -0.0000000096         -0.0000000008
|  8>    O         -0.6155923114         -0.0000000096         -0.0000000008
|  9> *
| 10> %elprop
| 11>  Polar 1
| 12> end
| 13> 
| 14>                          ****END OF INPUT****
================================================================================

                       ****************************
                       * Single Point Calculation *
                       ****************************

---------------------------------
CARTESIAN COORDINATES (ANGSTROEM)
---------------------------------
  C     -0.000001    0.000000    0.000000
  O      0.615594   -0.000000   -0.000000
  O     -0.615592   -0.000000   -0.000000

----------------------------
CARTESIAN COORDINATES (A.U.)
----------------------------
  NO LB      ZA    FRAG     MASS         X           Y           Z
   0 C     6.0000    0    12.011   -0.000003    0.000000    0.000000
   1 O     8.0000    0    15.999    1.163304   -0.000000   -0.000000
   2 O     8.0000    0    15.999   -1.163301   -0.000000   -0.000000

--------------------------------
INTERNAL COORDINATES (ANGSTROEM)
--------------------------------
 C      0   0   0     0.000000000000     0.00000000     0.00000000
 O      1   0   0     0.615595114200     0.00000000     0.00000000
 O      1   2   0     0.615590910000   179.99999453     0.00000000

---------------------------
INTERNAL COORDINATES (A.U.)
---------------------------
 C      0   0   0     0.000000000000     0.00000000     0.00000000
 O      1   0   0     1.163306175218     0.00000000     0.00000000
 O      1   2   0     1.163298230431   179.99999453     0.00000000

---------------------
BASIS SET INFORMATION
---------------------
There are 2 groups of distinct atoms

 Group   1 Type C   : 7s4p1d contracted to 3s2p1d pattern {511/31/1}
 Group   2 Type O   : 7s4p1d contracted to 3s2p1d pattern {511/31/1}

Atom   0C    basis set group =>   1
Atom   1O    basis set group =>   2
Atom   2O    basis set group =>   2

-------------------------
BASIS SET IN INPUT FORMAT
-------------------------

 # Basis set for element : C 
 NewGTO C 
 S 5 
   1    1238.4016938000      0.0055173650
   2     186.2900499200      0.0410888285
   3      42.2511763460      0.1822538213
   4      11.6765579320      0.4682845944
   5       3.5930506482      0.4457581734
 S 1 
   1       0.4024514736      1.0000000000
 S 1 
   1       0.1309018267      1.0000000000
 P 3 
   1       9.4680970621      0.0568883320
   2       2.0103545142      0.3129405934
   3       0.5477100471      0.7606501651
 P 1 
   1       0.1526861379      1.0000000000
 D 1 
   1       0.8000000000      1.0000000000
  end;

 # Basis set for element : O 
 NewGTO O 
 S 5 
   1    2266.1767785000     -0.0053893504
   2     340.8701019100     -0.0402347214
   3      77.3631351670     -0.1800818421
   4      21.4796449400     -0.4682885766
   5       6.6589433124     -0.4469261716
 S 1 
   1       0.8097597567      1.0000000000
 S 1 
   1       0.2553077223      1.0000000000
 P 3 
   1      17.7215043170      0.0626302488
   2       3.8635505440      0.3333113849
   3       1.0480920883      0.7414863830
 P 1 
   1       0.2764154441      1.0000000000
 D 1 
   1       1.2000000000      1.0000000000
  end;

---------------------------------
AUXILIARY/J BASIS SET INFORMATION
---------------------------------
There are 2 groups of distinct atoms

 Group   1 Type C   : 12s5p4d2f1g contracted to 6s4p3d1f1g pattern {711111/2111/211/2/1}
 Group   2 Type O   : 12s5p4d2f1g contracted to 6s4p3d1f1g pattern {711111/2111/211/2/1}

Atom   0C    basis set group =>   1
Atom   1O    basis set group =>   2
Atom   2O    basis set group =>   2

-------------------------------------
AUXILIARY/J BASIS SET IN INPUT FORMAT
-------------------------------------

 # Auxiliary/J basis set for element : C 
 NewAuxJGTO C 
 S 7 
   1    1861.0916331000      0.0134602335
   2     642.9939764000      0.0299160374
   3     235.1105725000      0.1008649584
   4      90.7028894000      0.2370970548
   5      36.7794552000      0.3924037254
   6      15.6046273000      0.3195862154
   7       6.8907294000      0.0530104441
 S 1 
   1       3.1478850000     -1.0000000000
 S 1 
   1       1.4777287000      1.0000000000
 S 1 
   1       0.7076466000      1.0000000000
 S 1 
   1       0.3430122000      1.0000000000
 S 1 
   1       0.1669453000      1.0000000000
 P 2 
   1      13.5472892000     -0.6769313712
   2       5.4669419000     -0.3779500978
 P 1 
   1       2.1751721000      1.0000000000
 P 1 
   1       0.8582194000      1.0000000000
 P 1 
   1       0.3376720000      1.0000000000
 D 2 
   1       5.9287253000     -0.3533329857
   2       1.9809209000     -0.7456525731
 D 1 
   1       0.8055417000     -1.0000000000
 D 1 
   1       0.3531244000     -1.0000000000
 F 2 
   1       1.6755626000      0.6311076882
   2       0.5997536000      0.4968166032
 G 1 
   1       1.0024600000     -1.0000000000
  end;

 # Auxiliary/J basis set for element : O 
 NewAuxJGTO O 
 S 7 
   1    2876.8216605000      0.0168151159
   2    1004.7443032000      0.0340137548
   3     369.7579954000      0.1194951309
   4     142.9442404000      0.2664627624
   5      57.8366425000      0.4202764046
   6      24.3864983000      0.2765077335
   7      10.6622662000      0.0057008815
 S 1 
   1       4.8070437000     -1.0000000000
 S 1 
   1       2.2210770000      1.0000000000
 S 1 
   1       1.0447795000      1.0000000000
 S 1 
   1       0.4968425000      1.0000000000
 S 1 
   1       0.2371384000      1.0000000000
 P 2 
   1      64.2613382000     -0.2731534179
   2      16.3006076000     -0.8168011598
 P 1 
   1       4.3550542000      1.0000000000
 P 1 
   1       1.2019554000      1.0000000000
 P 1 
   1       0.3354196000      1.0000000000
 D 2 
   1       9.2146611000     -0.4661230638
   2       2.8435251000     -0.6600908911
 D 1 
   1       0.9955759000     -1.0000000000
 D 1 
   1       0.3649441000     -1.0000000000
 F 2 
   1       2.6420115000      0.5931563945
   2       0.7345613000      0.5931563945
 G 1 
   1       1.3931000000     -1.0000000000
  end;


Checking for AutoStart:
The File: job.gbw exists
Trying to determine its content:
     ... Fine, the file contains calculation information
     ... Fine, the calculation information was read
     ... Fine, the file contains a basis set
     ... Fine, the basis set was read
     ... Fine, the file contains a geometry
     ... Fine, the geometry was read
     ... Fine, the file contains a set of orbitals
     ... Fine, the orbitals can be read
     => possible old guess file was deleted
     => GBW file was renamed to GES file
     => GES file is set as startup file
     => Guess is set to MORead
     ... now leaving AutoStart

------------------------------------------------------------------------------
                             ORCA STARTUP CALCULATIONS
                           -- RI-GTO INTEGRALS CHOSEN --
------------------------------------------------------------------------------
------------------------------------------------------------------------------
                   ___                                                        
                  /   \      - P O W E R E D   B Y -                         
                 /     \                                                     
                 |  |  |   _    _      __       _____    __    __             
                 |  |  |  | |  | |    /  \     |  _  \  |  |  /  |          
                  \  \/   | |  | |   /    \    | | | |  |  | /  /          
                 / \  \   | |__| |  /  /\  \   | |_| |  |  |/  /          
                |  |  |   |  __  | /  /__\  \  |    /   |      \           
                |  |  |   | |  | | |   __   |  |    \   |  |\   \          
                \     /   | |  | | |  |  |  |  | |\  \  |  | \   \       
                 \___/    |_|  |_| |__|  |__|  |_| \__\ |__|  \__/        
                                                                              
                      - O R C A' S   B I G   F R I E N D -                    
                                      &                                       
                       - I N T E G R A L  F E E D E R -                       
                                                                              
 v1 FN, 2020, v2 2021, v3 2022-2024                                           
------------------------------------------------------------------------------


----------------------
SHARK INTEGRAL PACKAGE
----------------------

Number of atoms                             ...      3
Number of basis functions                   ...     42
Number of shells                            ...     18
Maximum angular momentum                    ...      2
Integral batch strategy                     ... SHARK/LIBINT Hybrid
RI-J (if used) integral strategy            ... SPLIT-RIJ (Revised 2003 algorithm where possible)
Printlevel                                  ...      1
Contraction scheme used                     ... SEGMENTED contraction
Prescreening option                         ... SCHWARTZ
   Thresh                                   ... 2.500e-11
   Tcut                                     ... 2.500e-12
   Tpresel                                  ... 2.500e-12 
Coulomb Range Separation                    ... NOT USED
Exchange Range Separation                   ... NOT USED
Multipole approximations                    ... NOT USED
Finite Nucleus Model                        ... NOT USED
CABS basis                                  ... NOT available
Auxiliary Coulomb fitting basis             ... AVAILABLE
   # of basis functions in Aux-J            ...    147
   # of shells in Aux-J                     ...     45
   Maximum angular momentum in Aux-J        ...      4
Auxiliary J/K fitting basis                 ... NOT available
Auxiliary Correlation fitting basis         ... NOT available
Auxiliary 'external' fitting basis          ... NOT available

Checking pre-screening integrals            ... done (  0.0 sec) Dimension = 18
Check shell pair data                       ... done (  0.0 sec)
Shell pair information
Shell pair cut-off parameter TPreSel        ...   2.5e-12
Total number of shell pairs                 ...       171
Shell pairs after pre-screening             ...       171
Total number of primitive shell pairs       ...       705
Primitive shell pairs kept                  ...       656
          la=0 lb=0:     45 shell pairs
          la=1 lb=0:     54 shell pairs
          la=1 lb=1:     21 shell pairs
          la=2 lb=0:     27 shell pairs
          la=2 lb=1:     18 shell pairs
          la=2 lb=2:      6 shell pairs

Calculating one electron integrals          ... done (  0.0 sec)
Calculating RI/J V-Matrix + Cholesky decomp.... done (  0.0 sec)
Calculating Nuclear repulsion               ... done (  0.0 sec) ENN=    110.031597714090 Eh

Diagonalization of the overlap matrix:
Smallest eigenvalue                        ... 1.069e-03
Time for diagonalization                   ...    0.000 sec
Threshold for overlap eigenvalues          ... 1.000e-07
Number of eigenvalues below threshold      ... 0
Time for construction of square roots      ...    0.000 sec
Total time needed                          ...    0.001 sec

-------------------
DFT GRID GENERATION
-------------------

General Integration Accuracy     IntAcc      ... 4.388
Radial Grid Type                 RadialGrid  ... OptM3 with GC (2021)
Angular Grid (max. ang.)         AngularGrid ... 4 (Lebedev-302)
Angular grid pruning method      GridPruning ... 4 (adaptive)
Weight generation scheme         WeightScheme... mBecke (2022)
Basis function cutoff            BFCut       ... 1.0000e-11
Integration weight cutoff        WCut        ... 1.0000e-14
Partially contracted basis set               ... off
Rotationally invariant grid construction     ... off
Angular grids for H and He will be reduced by one unit

Total number of grid points                  ...    18242
Total number of batches                      ...      287
Average number of points per batch           ...       63
Average number of grid points per atom       ...     6081

--------------------
COSX GRID GENERATION
--------------------

GRIDX 1
-------
General Integration Accuracy     IntAcc      ... 3.816
Radial Grid Type                 RadialGrid  ... OptM3 with GC (2021)
Angular Grid (max. ang.)         AngularGrid ... 1 (Lebedev-50)
Angular grid pruning method      GridPruning ... 4 (adaptive)
Weight generation scheme         WeightScheme... mBecke (2022)
Basis function cutoff            BFCut       ... 1.0000e-11
Integration weight cutoff        WCut        ... 1.0000e-14
Partially contracted basis set               ... on
Rotationally invariant grid construction     ... off
Angular grids for H and He will be reduced by one unit

Total number of grid points                  ...     2280
Total number of batches                      ...       19
Average number of points per batch           ...      120
Average number of grid points per atom       ...      760
UseSFitting                                  ... on

GRIDX 2
-------
General Integration Accuracy     IntAcc      ... 4.020
Radial Grid Type                 RadialGrid  ... OptM3 with GC (2021)
Angular Grid (max. ang.)         AngularGrid ... 2 (Lebedev-110)
Angular grid pruning method      GridPruning ... 4 (adaptive)
Weight generation scheme         WeightScheme... mBecke (2022)
Basis function cutoff            BFCut       ... 1.0000e-11
Integration weight cutoff        WCut        ... 1.0000e-14
Partially contracted basis set               ... on
Rotationally invariant grid construction     ... off
Angular grids for H and He will be reduced by one unit

Total number of grid points                  ...     5600
Total number of batches                      ...       45
Average number of points per batch           ...      124
Average number of grid points per atom       ...     1867
UseSFitting                                  ... on

GRIDX 3
-------
General Integration Accuracy     IntAcc      ... 4.338
Radial Grid Type                 RadialGrid  ... OptM3 with GC (2021)
Angular Grid (max. ang.)         AngularGrid ... 3 (Lebedev-194)
Angular grid pruning method      GridPruning ... 4 (adaptive)
Weight generation scheme         WeightScheme... mBecke (2022)
Basis function cutoff            BFCut       ... 1.0000e-11
Integration weight cutoff        WCut        ... 1.0000e-14
Partially contracted basis set               ... on
Rotationally invariant grid construction     ... off
Angular grids for H and He will be reduced by one unit

Total number of grid points                  ...    12496
Total number of batches                      ...      100
Average number of points per batch           ...      124
Average number of grid points per atom       ...     4165
UseSFitting                                  ... on
Initializing property integral containers    ... done (  0.0 sec)

SHARK setup successfully completed in   0.1 seconds

Maximum memory used throughout the entire STARTUP-calculation: 9.4 MB
-------------------------------------------------------------------------------
                                 ORCA GUESS
                   Start orbitals & Density for SCF / CASSCF
-------------------------------------------------------------------------------

------------
SCF SETTINGS
------------
Hamiltonian:
 Density Functional     Method          .... DFT(GTOs)
 Exchange Functional    Exchange        .... B88
   X-Alpha parameter    XAlpha          ....  0.666667
   Becke's b parameter  XBeta           ....  0.004200
 Correlation Functional Correlation     .... LYP
 LDA part of GGA corr.  LDAOpt          .... VWN-5
 Gradients option       PostSCFGGA      .... off
 Hybrid DFT is turned on
   Fraction HF Exchange ScalHFX         ....  0.200000
   Scaling of DF-GGA-X  ScalDFX         ....  0.720000
   Scaling of DF-GGA-C  ScalDFC         ....  0.810000
   Scaling of DF-LDA-C  ScalLDAC        ....  1.000000
   Perturbative correction              ....  0.000000
   NL short-range parameter             ....  4.800000
 RI-approximation to the Coulomb term is turned on
   Number of AuxJ basis functions       .... 147
   RIJ-COSX (HFX calculated with COS-X)).... on


General Settings:
 Integral files         IntName         .... job
 Hartree-Fock type      HFTyp           .... RHF
 Total Charge           Charge          ....    0
 Multiplicity           Mult            ....    1
 Number of Electrons    NEL             ....   22
 Basis Dimension        Dim             ....   42
 Nuclear Repulsion      ENuc            ....    110.0315977141 Eh

Convergence Acceleration:
 AO-DIIS                CNVDIIS         .... on
   Start iteration      DIISMaxIt       ....    12
   Startup error        DIISStart       ....  0.200000
   # of expansion vecs  DIISMaxEq       ....     5
   Bias factor          DIISBfac        ....   1.050
   Max. coefficient     DIISMaxC        ....  10.000
 MO-DIIS                CNVKDIIS        .... off
 Trust-Rad. Augm. Hess. CNVTRAH         .... auto
   Auto Start mean grad. ratio tolernc. ....  1.125000
   Auto Start start iteration           ....     1
   Auto Start num. interpolation iter.  ....    10
   Max. Number of Micro iterations      ....    24
   Max. Number of Macro iterations      .... Maxiter - #DIIS iter
   Number of Davidson start vectors     ....     2
   Converg. threshold    (grad. norm)   ....   1.000e-05
   Grad. Scal. Fac. for Micro threshold ....   0.100
   Minimum threshold for Micro iter.    ....   1.000e-02
   NR start threshold (gradient norm)   ....   1.000e-04
   Initial trust radius                 ....   0.400
   Minimum AH scaling param. (alpha)    ....   1.000
   Maximum AH scaling param. (alpha)    .... 1000.000
   Quad. conv. algorithm                .... NR
   White noise on init. David. guess    .... on
   Maximum white noise                  ....   0.010
   Pseudo random numbers                .... off
   Inactive MOs                         .... canonical
   Orbital update algorithm             .... Taylor
   Preconditioner                       .... Diag
   Full preconditioner red. dimension   ....   250
 SOSCF                  CNVSOSCF        .... on
   Start iteration      SOSCFMaxIt      ....   150
   Startup grad/error   SOSCFStart      ....  0.003300
   Hessian update       SOSCFHessUp     .... L-BFGS
 Level Shifting         CNVShift        .... on
   Level shift para.    LevelShift      ....    0.2500
   Turn off err/grad.   ShiftErr        ....    0.0010
 Zerner damping         CNVZerner       .... off
 Static damping         CNVDamp         .... on
   Fraction old density DampFac         ....    0.7000
   Max. Damping (<1)    DampMax         ....    0.9800
   Min. Damping (>=0)   DampMin         ....    0.0000
   Turn off err/grad.   DampErr         ....    0.1000

SCF Procedure:
 Maximum # iterations   MaxIter         ....   125
 SCF integral mode      SCFMode         .... Direct
   Integral package                     .... SHARK and LIBINT hybrid scheme
 Reset frequency        DirectResetFreq ....    20
 Integral Threshold     Thresh          ....  2.500e-11 Eh
 Primitive CutOff       TCut            ....  2.500e-12 Eh

Convergence Tolerance:
 Convergence Check Mode ConvCheckMode   .... Total+1el-Energy
 Convergence forced     ConvForced      .... 0
 Energy Change          TolE            ....  1.000e-08 Eh
 1-El. energy change                    ....  1.000e-05 Eh
 Orbital Gradient       TolG            ....  1.000e-05
 Orbital Rotation angle TolX            ....  1.000e-05
 DIIS Error             TolErr          ....  5.000e-07

---------------------
INITIAL GUESS: MOREAD
---------------------
Guess MOs are being read from file: job.ges
Input Geometry matches current geometry (good)
Input basis set matches current basis set (good)
Occupation numbers will be reassigned to an Aufbau configuration
MOs were renormalized
MOs were reorthogonalized (Cholesky)
                      ------------------
                      INITIAL GUESS DONE (   0.0 sec)
                      ------------------
----------------------
INITIAL GUESS ORBITALS
----------------------
                      0         1         2         3         4         5   
                 -19.20358 -19.20328 -10.74002  -1.27956  -1.19180  -0.97100
                   2.00000   2.00000   2.00000   2.00000   2.00000   2.00000
                  --------  --------  --------  --------  --------  --------
  0C   1s        -0.003263 -0.000051  0.971689  0.000008 -0.376868  0.000000
  0C   2s         0.040421  0.000634 -0.101804  0.000016 -0.032468  0.000000
  0C   3s        -0.003375 -0.000053 -0.008147 -0.000001  0.054442  0.000000
  0C   1pz       -0.000000 -0.000000 -0.000000  0.000000 -0.000000 -0.390706
  0C   1px       -0.000107  0.006877 -0.000001 -0.814582 -0.000020 -0.000000
  0C   1py       -0.000000 -0.000000 -0.000000 -0.000000 -0.000000 -0.341690
  0C   2pz        0.000000  0.000000 -0.000000  0.000000 -0.000000 -0.095448
  0C   2px        0.000287 -0.018319 -0.000000 -0.068343 -0.000002 -0.000000
  0C   2py       -0.000000 -0.000000 -0.000000  0.000000 -0.000000 -0.083473
  0C   1dz2       0.003903  0.000061  0.007723 -0.000003  0.049484 -0.000000
  0C   1dxz       0.000000  0.000000  0.000000  0.000000  0.000000 -0.000001
  0C   1dyz       0.000000  0.000000  0.000000 -0.000000 -0.000000  0.000000
  0C   1dx2y2    -0.006760 -0.000106 -0.013377  0.000006 -0.085709  0.000000
  0C   1dxy       0.000000  0.000000  0.000000  0.000000  0.000000 -0.000001
  1O   1s         0.686187  0.707995  0.029305 -0.238923  0.202921 -0.000000
  1O   2s        -0.029719 -0.040971  0.055238 -0.165187  0.513258 -0.000000
  1O   3s        -0.004982  0.034557  0.026667  0.227635  0.165098 -0.000000
  1O   1pz        0.000000 -0.000000  0.000000 -0.000000 -0.000000 -0.274763
  1O   1px        0.008935  0.010237 -0.034855  0.260184 -0.153628 -0.000000
  1O   1py        0.000000 -0.000000  0.000000 -0.000000 -0.000000 -0.240293
  1O   2pz       -0.000000  0.000000  0.000000 -0.000000  0.000000  0.021646
  1O   2px        0.007797 -0.001795 -0.012602 -0.126770 -0.042317  0.000000
  1O   2py       -0.000000 -0.000000  0.000000  0.000000  0.000000  0.018930
  1O   1dz2       0.001153  0.002593 -0.003641  0.030036  0.008771 -0.000000
  1O   1dxz      -0.000000  0.000000 -0.000000  0.000000  0.000000  0.030866
  1O   1dyz      -0.000000  0.000000 -0.000000 -0.000000 -0.000000 -0.000000
  1O   1dx2y2    -0.001996 -0.004492  0.006307 -0.052023 -0.015192  0.000000
  1O   1dxy       0.000000  0.000000 -0.000000  0.000000  0.000000  0.026994
  2O   1s         0.708044 -0.686137  0.029306  0.238914  0.202934 -0.000000
  2O   2s        -0.030989  0.040019  0.055237  0.165147  0.513269 -0.000000
  2O   3s        -0.003897 -0.034695  0.026667 -0.227646  0.165088 -0.000000
  2O   1pz       -0.000000 -0.000000  0.000000  0.000000 -0.000000 -0.274769
  2O   1px       -0.009252  0.009952  0.034855  0.260173  0.153637  0.000000
  2O   1py        0.000000  0.000000  0.000000  0.000000 -0.000000 -0.240298
  2O   2pz       -0.000000 -0.000000  0.000000  0.000000  0.000000  0.021645
  2O   2px       -0.007736 -0.002038  0.012601 -0.126775  0.042310 -0.000000
  2O   2py        0.000000  0.000000  0.000000 -0.000000  0.000000  0.018930
  2O   1dz2       0.001233 -0.002556 -0.003641 -0.030036  0.008770 -0.000000
  2O   1dxz      -0.000000  0.000000  0.000000  0.000000 -0.000000 -0.030867
  2O   1dyz       0.000000  0.000000  0.000000 -0.000000  0.000000 -0.000000
  2O   1dx2y2    -0.002136  0.004427  0.006307  0.052024 -0.015190  0.000000
  2O   1dxy      -0.000000  0.000000  0.000000  0.000000 -0.000000 -0.026995
                      6         7         8         9        10        11   
                  -0.97100  -0.51957  -0.37224  -0.37224  -0.35625   0.15268
                   2.00000   2.00000   2.00000   2.00000   2.00000   0.00000
                  --------  --------  --------  --------  --------  --------
  0C   1s        -0.000000  0.000002 -0.000000 -0.000000 -0.285381 -0.059769
  0C   2s        -0.000000 -0.000007 -0.000000 -0.000000 -0.725246 -0.708275
  0C   3s        -0.000000 -0.000000 -0.000000 -0.000000 -0.244467 -3.228987
  0C   1pz       -0.341690 -0.000000 -0.000001 -0.000002 -0.000000  0.000000
  0C   1px       -0.000000  0.390561 -0.000000  0.000000 -0.000003 -0.000001
  0C   1py        0.390706  0.000000  0.000002 -0.000001  0.000000 -0.000000
  0C   2pz       -0.083473  0.000000 -0.000000 -0.000002  0.000000 -0.000000
  0C   2px        0.000000 -0.117031  0.000000 -0.000000  0.000000  0.000006
  0C   2py        0.095448  0.000000  0.000002 -0.000000  0.000000 -0.000000
  0C   1dz2       0.000000  0.000001  0.000000  0.000000  0.083103 -0.044273
  0C   1dxz      -0.000001 -0.000000 -0.003256 -0.013575  0.000000  0.000000
  0C   1dyz       0.000000 -0.000000 -0.000000  0.000000  0.000000 -0.000000
  0C   1dx2y2    -0.000000 -0.000002 -0.000000 -0.000000 -0.143938  0.076683
  0C   1dxy       0.000001 -0.000000  0.013575 -0.003256 -0.000000  0.000000
  1O   1s         0.000000 -0.082113 -0.000000  0.000000 -0.056157  0.087427
  1O   2s         0.000000 -0.297567 -0.000000  0.000000  0.147350  0.034294
  1O   3s         0.000000 -0.364610  0.000000 -0.000000  0.067116  1.906344
  1O   1pz       -0.240293  0.000000 -0.130286 -0.543206  0.000000  0.000000
  1O   1px        0.000000 -0.428681  0.000000 -0.000000 -0.506870  0.036380
  1O   1py        0.274763  0.000000  0.543206 -0.130286  0.000000  0.000000
  1O   2pz        0.018930  0.000000 -0.079729 -0.332416  0.000000  0.000000
  1O   2px       -0.000000 -0.071925  0.000000 -0.000000 -0.400524 -0.257256
  1O   2py       -0.021646  0.000000  0.332416 -0.079729  0.000000  0.000000
  1O   1dz2       0.000000 -0.024826  0.000000 -0.000000  0.003744 -0.010710
  1O   1dxz       0.026994 -0.000000  0.013102  0.054628 -0.000000 -0.000000
  1O   1dyz      -0.000000 -0.000000 -0.000000 -0.000000  0.000000 -0.000000
  1O   1dx2y2    -0.000000  0.042999 -0.000000  0.000000 -0.006485  0.018551
  1O   1dxy      -0.030866 -0.000000 -0.054628  0.013102 -0.000000 -0.000000
  2O   1s         0.000000  0.082111  0.000000 -0.000000 -0.056156  0.087427
  2O   2s         0.000000  0.297573  0.000000 -0.000000  0.147351  0.034295
  2O   3s         0.000000  0.364608 -0.000000  0.000000  0.067119  1.906365
  2O   1pz       -0.240298 -0.000000  0.130285  0.543202 -0.000000  0.000000
  2O   1px       -0.000000 -0.428680  0.000000 -0.000000  0.506873 -0.036380
  2O   1py        0.274769 -0.000000 -0.543202  0.130285  0.000000  0.000000
  2O   2pz        0.018930 -0.000000  0.079728  0.332414 -0.000000  0.000000
  2O   2px        0.000000 -0.071924  0.000000 -0.000000  0.400526  0.257257
  2O   2py       -0.021645 -0.000000 -0.332414  0.079728  0.000000  0.000000
  2O   1dz2       0.000000  0.024825 -0.000000  0.000000  0.003744 -0.010710
  2O   1dxz      -0.026995 -0.000000  0.013102  0.054628 -0.000000  0.000000
  2O   1dyz      -0.000000  0.000000  0.000000  0.000000 -0.000000  0.000000
  2O   1dx2y2    -0.000000 -0.042999  0.000000 -0.000000 -0.006486  0.018551
  2O   1dxy       0.030867 -0.000000 -0.054628  0.013102  0.000000  0.000000
                     12        13        14        15        16        17   
                   0.22610   0.22610   0.31595   0.72911   0.80116   0.80116
                   0.00000   0.00000   0.00000   0.00000   0.00000   0.00000
                  --------  --------  --------  --------  --------  --------
  0C   1s         0.000000  0.000000  0.000001  0.251999 -0.000000  0.000000
  0C   2s         0.000000  0.000000  0.000005 -4.812794  0.000002 -0.000001
  0C   3s        -0.000000 -0.000000  0.000012 -1.676934  0.000000 -0.000000
  0C   1pz        0.068538 -0.222247 -0.000000  0.000000  0.353038  1.093448
  0C   1px       -0.000000 -0.000000  0.097763  0.000005  0.000000 -0.000000
  0C   1py       -0.222247 -0.068538  0.000000  0.000000  1.093448 -0.353038
  0C   2pz       -0.499685  1.620318  0.000000  0.000000  0.486840  1.507867
  0C   2px       -0.000000 -0.000000  3.244071 -0.000007 -0.000000  0.000000
  0C   2py        1.620318  0.499685  0.000000  0.000001  1.507867 -0.486840
  0C   1dz2      -0.000000 -0.000000  0.000000  0.048128 -0.000000  0.000000
  0C   1dxz       0.000000 -0.000000  0.000000 -0.000000 -0.000022 -0.000069
  0C   1dyz      -0.000000  0.000000 -0.000000  0.000000  0.000000  0.000000
  0C   1dx2y2     0.000000  0.000000 -0.000000 -0.083360  0.000000 -0.000000
  0C   1dxy      -0.000000 -0.000000  0.000000 -0.000000 -0.000069  0.000022
  1O   1s         0.000000  0.000000 -0.062578 -0.018040 -0.000000  0.000000
  1O   2s        -0.000000 -0.000000  0.000138  0.234526 -0.000000  0.000000
  1O   3s         0.000000  0.000000 -2.879454  2.633170 -0.000001  0.000000
  1O   1pz        0.035614 -0.115486 -0.000000 -0.000000 -0.055607 -0.172229
  1O   1px        0.000000  0.000000 -0.153556  0.304174 -0.000000  0.000000
  1O   1py       -0.115486 -0.035614 -0.000000 -0.000000 -0.172229  0.055607
  1O   2pz        0.130318 -0.422578 -0.000000 -0.000000 -0.440237 -1.363526
  1O   2px        0.000000  0.000000 -0.019704 -1.723457  0.000001 -0.000000
  1O   2py       -0.422578 -0.130318 -0.000000 -0.000000 -1.363526  0.440237
  1O   1dz2      -0.000000 -0.000000  0.001509 -0.026460  0.000000 -0.000000
  1O   1dxz      -0.008975  0.029102  0.000000 -0.000000 -0.022961 -0.071117
  1O   1dyz       0.000000 -0.000000 -0.000000  0.000000  0.000000  0.000000
  1O   1dx2y2     0.000000  0.000000 -0.002614  0.045830 -0.000000  0.000000
  1O   1dxy       0.029102  0.008975  0.000000 -0.000000 -0.071117  0.022961
  2O   1s         0.000000  0.000000  0.062577 -0.018041 -0.000000  0.000000
  2O   2s        -0.000000 -0.000000 -0.000138  0.234533 -0.000000  0.000000
  2O   3s         0.000000  0.000000  2.879434  2.633209 -0.000001  0.000000
  2O   1pz        0.035614 -0.115485  0.000000 -0.000000 -0.055570 -0.172114
  2O   1px       -0.000000 -0.000000 -0.153558 -0.304173  0.000000 -0.000000
  2O   1py       -0.115485 -0.035614  0.000000 -0.000000 -0.172114  0.055570
  2O   2pz        0.130317 -0.422576  0.000000 -0.000000 -0.440362 -1.363913
  2O   2px       -0.000000 -0.000000 -0.019714  1.723479 -0.000001  0.000000
  2O   2py       -0.422576 -0.130317  0.000000 -0.000000 -1.363913  0.440362
  2O   1dz2      -0.000000 -0.000000 -0.001509 -0.026461  0.000000 -0.000000
  2O   1dxz       0.008975 -0.029103  0.000000  0.000000  0.022955  0.071099
  2O   1dyz       0.000000 -0.000000 -0.000000 -0.000000  0.000000  0.000000
  2O   1dx2y2     0.000000  0.000000  0.002614  0.045831 -0.000000  0.000000
  2O   1dxy      -0.029103 -0.008975  0.000000  0.000000  0.071099 -0.022955
                     18        19        20        21        22        23   
                   0.80782   0.80782   0.84083   1.22341   1.34137   1.34137
                   0.00000   0.00000   0.00000   0.00000   0.00000   0.00000
                  --------  --------  --------  --------  --------  --------
  0C   1s         0.000000 -0.000000  0.000000 -0.045780 -0.000000 -0.000000
  0C   2s        -0.000000 -0.000000 -0.000004  0.221045  0.000000  0.000000
  0C   3s         0.000000 -0.000000 -0.000000  3.223287  0.000000  0.000001
  0C   1pz        0.000050  0.000191 -0.000000 -0.000000  0.299644 -0.018626
  0C   1px        0.000000 -0.000000 -0.565932  0.000004  0.000000  0.000000
  0C   1py        0.000191 -0.000050  0.000000 -0.000000  0.018626  0.299644
  0C   2pz        0.000068  0.000258 -0.000000  0.000000 -1.544192  0.095989
  0C   2px       -0.000000  0.000000  0.945597 -0.000005 -0.000000 -0.000000
  0C   2py        0.000258 -0.000068  0.000000  0.000000 -0.095989 -1.544192
  0C   1dz2       0.000000  0.000000  0.000001  0.274574  0.000000 -0.000000
  0C   1dxz       0.110986  0.421512  0.000000  0.000000  0.000001 -0.000000
  0C   1dyz      -0.000000  0.000000 -0.000000 -0.000000  0.000001  0.000000
  0C   1dx2y2    -0.000000 -0.000000 -0.000002 -0.475577 -0.000000 -0.000000
  0C   1dxy       0.421512 -0.110986  0.000000 -0.000000  0.000000  0.000001
  1O   1s        -0.000000  0.000000 -0.009556  0.212564  0.000000  0.000000
  1O   2s         0.000000 -0.000000 -0.055267  2.125882  0.000000  0.000000
  1O   3s        -0.000001  0.000000  2.662736 -3.364109 -0.000000 -0.000001
  1O   1pz        0.090463  0.343569  0.000000  0.000000 -0.796151  0.049490
  1O   1px       -0.000000  0.000000  0.118948  0.115601  0.000000  0.000000
  1O   1py        0.343569 -0.090463  0.000000  0.000000 -0.049490 -0.796151
  1O   2pz       -0.294245 -1.117512 -0.000000 -0.000000  1.220952 -0.075896
  1O   2px        0.000001 -0.000000 -2.736993  0.163566  0.000000  0.000000
  1O   2py       -1.117512  0.294245 -0.000001 -0.000000  0.075896  1.220952
  1O   1dz2       0.000000 -0.000000 -0.007990  0.016495  0.000000 -0.000000
  1O   1dxz       0.014221  0.054010  0.000000  0.000000 -0.120220  0.007473
  1O   1dyz      -0.000000 -0.000000 -0.000000 -0.000000  0.000000  0.000000
  1O   1dx2y2    -0.000000 -0.000000  0.013838 -0.028570 -0.000000 -0.000000
  1O   1dxy       0.054010 -0.014221  0.000000  0.000000 -0.007473 -0.120220
  2O   1s         0.000000 -0.000000  0.009557  0.212564  0.000000  0.000000
  2O   2s        -0.000000  0.000000  0.055271  2.125894  0.000000  0.000000
  2O   3s         0.000001 -0.000000 -2.662736 -3.364140 -0.000000 -0.000001
  2O   1pz       -0.090478 -0.343628 -0.000000  0.000000 -0.796149  0.049490
  2O   1px       -0.000000  0.000000  0.118949 -0.115605 -0.000000 -0.000000
  2O   1py       -0.343628  0.090478 -0.000000  0.000000 -0.049490 -0.796149
  2O   2pz        0.294121  1.117040  0.000000 -0.000000  1.220954 -0.075896
  2O   2px        0.000001 -0.000000 -2.736992 -0.163566 -0.000000 -0.000000
  2O   2py        1.117040 -0.294121  0.000001 -0.000000  0.075896  1.220954
  2O   1dz2      -0.000000  0.000000  0.007990  0.016496  0.000000 -0.000000
  2O   1dxz       0.014228  0.054035  0.000000 -0.000000  0.120220 -0.007473
  2O   1dyz       0.000000  0.000000 -0.000000  0.000000  0.000000  0.000000
  2O   1dx2y2     0.000000  0.000000 -0.013838 -0.028571 -0.000000 -0.000000
  2O   1dxy       0.054035 -0.014228  0.000000 -0.000000  0.007473  0.120220
                     24        25        26        27        28        29   
                   1.36482   1.36483   1.59330   2.03320   2.56710   2.56711
                   0.00000   0.00000   0.00000   0.00000   0.00000   0.00000
                  --------  --------  --------  --------  --------  --------
  0C   1s        -0.000000 -0.000000  0.000001 -0.033294 -0.000000 -0.000000
  0C   2s         0.000000  0.000000 -0.000001  6.752325  0.000000  0.000000
  0C   3s         0.000000  0.000000 -0.000007  1.677387  0.000000  0.000000
  0C   1pz       -0.000000  0.000000 -0.000000 -0.000000  0.000000  0.000000
  0C   1px       -0.000000  0.000000 -0.088426  0.000004 -0.000000  0.000000
  0C   1py       -0.000000 -0.000000 -0.000000 -0.000000 -0.000000  0.000000
  0C   2pz        0.000001 -0.000000 -0.000000  0.000000 -0.000000  0.000000
  0C   2px        0.000000 -0.000000 -3.289628  0.000006 -0.000000  0.000000
  0C   2py        0.000000  0.000001  0.000000  0.000000 -0.000000 -0.000000
  0C   1dz2       0.000000 -0.741649 -0.000000  0.317288 -0.000002 -0.000000
  0C   1dxz      -0.000000 -0.000000 -0.000000 -0.000000 -0.000000 -0.000000
  0C   1dyz       0.856387  0.000000  0.000000 -0.000000 -0.000000 -0.000002
  0C   1dx2y2     0.000000 -0.428191  0.000000 -0.549559 -0.000001  0.000000
  0C   1dxy      -0.000000 -0.000000 -0.000000  0.000000  0.000000 -0.000000
  1O   1s         0.000000  0.000000 -0.214142 -0.163275 -0.000000 -0.000000
  1O   2s         0.000000  0.000000 -1.562574 -0.532734 -0.000000 -0.000000
  1O   3s        -0.000000 -0.000000  5.249450 -3.412287  0.000000 -0.000000
  1O   1pz        0.000000 -0.000000  0.000000  0.000000  0.000000  0.000000
  1O   1px        0.000000  0.000000 -0.383311  0.776225  0.000000  0.000000
  1O   1py        0.000000  0.000000  0.000000  0.000000 -0.000000  0.000000
  1O   2pz       -0.000001  0.000000  0.000000 -0.000000  0.000000  0.000000
  1O   2px        0.000000  0.000000 -0.085831  1.296783  0.000000  0.000000
  1O   2py       -0.000000 -0.000001  0.000000 -0.000000 -0.000000  0.000000
  1O   1dz2       0.000000 -0.118418  0.011621  0.022759 -0.624629  0.000000
  1O   1dxz       0.000000 -0.000000 -0.000000  0.000000  0.000000  0.000000
  1O   1dyz       0.136733  0.000000 -0.000000  0.000000 -0.000000 -0.721259
  1O   1dx2y2     0.000000 -0.068368 -0.020128 -0.039419 -0.360630  0.000000
  1O   1dxy       0.000000  0.000000 -0.000000  0.000000 -0.000000  0.000000
  2O   1s        -0.000000  0.000000  0.214141 -0.163276 -0.000000 -0.000000
  2O   2s        -0.000000  0.000000  1.562563 -0.532740 -0.000000 -0.000000
  2O   3s         0.000000 -0.000000 -5.249433 -3.412334 -0.000000  0.000000
  2O   1pz        0.000000 -0.000000 -0.000000  0.000000 -0.000000 -0.000000
  2O   1px        0.000000 -0.000000 -0.383315 -0.776225 -0.000000 -0.000000
  2O   1py        0.000000  0.000000 -0.000000  0.000000  0.000000 -0.000000
  2O   2pz       -0.000001  0.000000 -0.000000 -0.000000 -0.000000 -0.000000
  2O   2px       -0.000000 -0.000000 -0.085816 -1.296813 -0.000000 -0.000000
  2O   2py       -0.000000 -0.000001 -0.000000 -0.000000  0.000000 -0.000000
  2O   1dz2       0.000000 -0.118417 -0.011621  0.022761  0.624628 -0.000000
  2O   1dxz      -0.000000  0.000000 -0.000000 -0.000000  0.000000  0.000000
  2O   1dyz       0.136733  0.000000  0.000000 -0.000000  0.000000  0.721258
  2O   1dx2y2     0.000000 -0.068368  0.020128 -0.039423  0.360629 -0.000000
  2O   1dxy      -0.000000 -0.000000 -0.000000 -0.000000 -0.000000  0.000000
                     30        31        32        33        34        35   
                   2.96074   2.96074   3.27517   3.30821   3.56455   3.56455
                   0.00000   0.00000   0.00000   0.00000   0.00000   0.00000
                  --------  --------  --------  --------  --------  --------
  0C   1s        -0.000000 -0.000000  0.439437 -0.000075  0.000000 -0.000000
  0C   2s         0.000000  0.000000  9.357973 -0.001474 -0.000000  0.000000
  0C   3s        -0.000000 -0.000000  1.239682 -0.000189 -0.000000  0.000000
  0C   1pz       -0.000000  0.000000 -0.000000  0.000000  0.000000  0.000000
  0C   1px        0.000000  0.000000 -0.000024 -0.106690  0.000000  0.000000
  0C   1py        0.000000  0.000000 -0.000000  0.000000 -0.000000  0.000000
  0C   2pz       -0.000000  0.000001  0.000000  0.000000  0.000000  0.000000
  0C   2px       -0.000000 -0.000000  0.000018  0.080076  0.000000  0.000000
  0C   2py        0.000001  0.000000  0.000000  0.000000 -0.000000  0.000000
  0C   1dz2      -0.000000 -0.000000 -0.733017  0.000119  0.909197  0.000000
  0C   1dxz      -0.027743  0.379744 -0.000000  0.000000  0.000000  0.000000
  0C   1dyz      -0.000000 -0.000000  0.000000 -0.000000 -0.000000  1.049846
  0C   1dx2y2     0.000000  0.000000  1.269622 -0.000207  0.524925  0.000000
  0C   1dxy       0.379744  0.027743  0.000000  0.000000 -0.000000  0.000000
  1O   1s        -0.000000 -0.000000  0.004803  0.009865  0.000000 -0.000000
  1O   2s        -0.000000 -0.000000 -2.628782  0.448189  0.000000 -0.000000
  1O   3s         0.000000  0.000000 -3.125226 -2.422684 -0.000000 -0.000000
  1O   1pz        0.023622 -0.323341 -0.000000 -0.000000  0.000000  0.000000
  1O   1px        0.000000  0.000000  0.683248  0.059267 -0.000000  0.000000
  1O   1py       -0.323341 -0.023622 -0.000000 -0.000000 -0.000000  0.000000
  1O   2pz       -0.016894  0.231248 -0.000000 -0.000000 -0.000000 -0.000000
  1O   2px       -0.000000 -0.000000  1.467028  1.524570 -0.000000  0.000000
  1O   2py        0.231248  0.016894 -0.000000 -0.000000  0.000000 -0.000000
  1O   1dz2       0.000000 -0.000000  0.354027  0.498366 -0.805337 -0.000000
  1O   1dxz       0.050329 -0.688902  0.000000  0.000000  0.000000  0.000000
  1O   1dyz      -0.000000 -0.000000  0.000000  0.000000  0.000000 -0.929924
  1O   1dx2y2     0.000000  0.000000 -0.613193 -0.863195 -0.464962 -0.000000
  1O   1dxy      -0.688902 -0.050329  0.000000  0.000000 -0.000000  0.000000
  2O   1s         0.000000  0.000000  0.004799 -0.009867  0.000000 -0.000000
  2O   2s         0.000000  0.000000 -2.628958 -0.447343  0.000000 -0.000000
  2O   3s        -0.000000 -0.000000 -3.124465  2.423653  0.000000  0.000000
  2O   1pz       -0.023622  0.323342 -0.000000  0.000000  0.000000  0.000000
  2O   1px        0.000000  0.000000 -0.683227  0.059483  0.000000 -0.000000
  2O   1py        0.323342  0.023622 -0.000000  0.000000 -0.000000  0.000000
  2O   2pz        0.016894 -0.231251 -0.000000  0.000000 -0.000000 -0.000000
  2O   2px       -0.000000 -0.000000 -1.466544  1.525029  0.000000 -0.000000
  2O   2py       -0.231251 -0.016894 -0.000000  0.000000  0.000000 -0.000000
  2O   1dz2      -0.000000  0.000000  0.353867 -0.498480 -0.805341 -0.000000
  2O   1dxz       0.050329 -0.688903 -0.000000  0.000000 -0.000000 -0.000000
  2O   1dyz       0.000000  0.000000 -0.000000  0.000000  0.000000 -0.929929
  2O   1dx2y2    -0.000000 -0.000000 -0.612916  0.863393 -0.464964 -0.000000
  2O   1dxy      -0.688903 -0.050329 -0.000000  0.000000  0.000000 -0.000000
                     36        37        38        39        40        41   
                   4.15152   4.15152   4.49334   4.49334   6.41683   7.13683
                   0.00000   0.00000   0.00000   0.00000   0.00000   0.00000
                  --------  --------  --------  --------  --------  --------
  0C   1s        -0.000000  0.000000 -0.000000  0.000000  0.635222 -0.000010
  0C   2s        -0.000000  0.000000  0.000000 -0.000000-21.348037  0.000671
  0C   3s        -0.000000  0.000000 -0.000000  0.000000 -0.412661  0.000026
  0C   1pz       -0.000004 -0.000011  0.748522  2.407813  0.000000  0.000000
  0C   1px        0.000000 -0.000000 -0.000000  0.000000 -0.000069 -5.676663
  0C   1py       -0.000011  0.000004  2.407813 -0.748522  0.000000 -0.000000
  0C   2pz       -0.000001 -0.000002  0.229217  0.737334 -0.000000 -0.000000
  0C   2px        0.000000 -0.000000 -0.000000  0.000000  0.000004 -0.050390
  0C   2py       -0.000002  0.000001  0.737334 -0.229217 -0.000000  0.000000
  0C   1dz2      -0.000000 -0.000000 -0.000000 -0.000000  3.244289 -0.000085
  0C   1dxz       1.030287  2.493517 -0.000002 -0.000005  0.000000  0.000000
  0C   1dyz      -0.000000 -0.000000 -0.000000 -0.000000  0.000000  0.000000
  0C   1dx2y2     0.000000  0.000000  0.000000 -0.000000 -5.619274  0.000147
  0C   1dxy       2.493517 -1.030287 -0.000005  0.000002  0.000000  0.000000
  1O   1s        -0.000000  0.000000  0.000000 -0.000000 -0.138389  0.177924
  1O   2s         0.000000 -0.000000 -0.000000  0.000000  9.843534  3.786650
  1O   3s        -0.000000  0.000000  0.000000 -0.000000  3.725680  2.279227
  1O   1pz       -0.577845 -1.398511 -0.158540 -0.509985  0.000000  0.000000
  1O   1px       -0.000000  0.000000 -0.000000  0.000000 -1.718328 -1.778212
  1O   1py       -1.398511  0.577845 -0.509985  0.158540  0.000000  0.000000
  1O   2pz       -0.243739 -0.589901 -0.314470 -1.011573  0.000000  0.000000
  1O   2px        0.000000 -0.000000 -0.000000  0.000000 -1.900534 -1.260166
  1O   2py       -0.589901  0.243739 -1.011573  0.314470  0.000000  0.000000
  1O   1dz2       0.000000 -0.000000 -0.000000  0.000000  0.302661 -0.273448
  1O   1dxz       0.357801  0.865956  0.344720  1.108880 -0.000000 -0.000000
  1O   1dyz      -0.000000 -0.000000  0.000000  0.000000 -0.000000 -0.000000
  1O   1dx2y2     0.000000 -0.000000  0.000000 -0.000000 -0.524225  0.473625
  1O   1dxy       0.865956 -0.357801  1.108880 -0.344720 -0.000000 -0.000000
  2O   1s         0.000000 -0.000000  0.000000 -0.000000 -0.138400 -0.177913
  2O   2s        -0.000000  0.000000 -0.000000  0.000000  9.843462 -3.787224
  2O   3s         0.000000 -0.000000  0.000000 -0.000000  3.725668 -2.279500
  2O   1pz        0.577850  1.398522 -0.158544 -0.509998  0.000000 -0.000000
  2O   1px       -0.000000  0.000000  0.000000 -0.000000  1.718226 -1.778310
  2O   1py        1.398522 -0.577850 -0.509998  0.158544  0.000000 -0.000000
  2O   2pz        0.243741  0.589907 -0.314473 -1.011583  0.000000 -0.000000
  2O   2px        0.000000 -0.000000  0.000000 -0.000000  1.900500 -1.260290
  2O   2py        0.589907 -0.243741 -1.011583  0.314473  0.000000 -0.000000
  2O   1dz2      -0.000000  0.000000 -0.000000  0.000000  0.302674  0.273426
  2O   1dxz       0.357796  0.865945 -0.344723 -1.108889  0.000000 -0.000000
  2O   1dyz       0.000000  0.000000  0.000000  0.000000  0.000000 -0.000000
  2O   1dx2y2    -0.000000  0.000000  0.000000 -0.000000 -0.524246 -0.473588
  2O   1dxy       0.865945 -0.357796 -1.108889  0.344723  0.000000 -0.000000
             **** ENERGY FILE WAS UPDATED (job.en.tmp) ****
Finished Guess after   0.0 sec
Maximum memory used throughout the entire GUESS-calculation: 5.8 MB

-------------------------------------------------------------------------------------------
                                      ORCA LEAN-SCF
                              memory conserving SCF solver
-------------------------------------------------------------------------------------------

----------------------------------------D-I-I-S--------------------------------------------
Iteration    Energy (Eh)           Delta-E    RMSDP     MaxDP     DIISErr   Damp  Time(sec)
-------------------------------------------------------------------------------------------
               ***  Starting incremental Fock matrix formation  ***
                              *** Initializing SOSCF ***
---------------------------------------S-O-S-C-F--------------------------------------
Iteration    Energy (Eh)           Delta-E    RMSDP     MaxDP     MaxGrad    Time(sec)
--------------------------------------------------------------------------------------
    1    -182.7705344253900535     0.00e+00  2.10e-07  1.53e-06  1.05e-07     0.2

                         ----------------------------
                         !        ITERATION     0   !
                         ----------------------------
   Total Energy        :    -182.770534425390 Eh
   Energy Change       :     182.770534425390 Eh
   MAX-DP              :       0.000001529510
   RMS-DP              :       0.000000209817
   Orbital gradient    :       0.000000104725
   Orbital Rotation    :       0.000000104725
   alpha HOMO          :      -0.3563 Eh
   alpha LUMO          :       0.1527 Eh
   Int. Num. El.       :    21.99999224 (UP=   10.99999612 DN=   10.99999612)
   Exchange            :   -18.84500570 Eh
   Correlation         :    -1.00171602 Eh

               *** Restarting incremental Fock matrix formation ***
    2    -182.7705344253960789    -6.03e-12  1.20e-07  8.24e-07  3.11e-07     0.2
                  *** Gradient check signals convergence ***

                         ----------------------------
                         !        ITERATION     1   !
                         ----------------------------
   Total Energy        :    -182.770534425396 Eh
   Energy Change       :       0.000000000006 Eh
   MAX-DP              :       0.000000824227
   RMS-DP              :       0.000000119831
   Orbital gradient    :       0.000000310543
   Orbital Rotation    :       0.000000267966
   alpha HOMO          :      -0.3563 Eh
   alpha LUMO          :       0.1527 Eh
   Int. Num. El.       :    21.99999224 (UP=   10.99999612 DN=   10.99999612)
   Exchange            :   -18.84500816 Eh
   Correlation         :    -1.00171609 Eh


               *****************************************************
               *                     SUCCESS                       *
               *           SCF CONVERGED AFTER   2 CYCLES          *
               *****************************************************

Recomputing exchange energy using gridx3       ... done (    0.221 sec)
Old exchange energy                            :     -4.745769770 Eh
New exchange energy                            :     -4.745761472 Eh
Exchange energy change after final integration :      0.000008298 Eh
Total energy after final integration           :   -182.770526127 Eh
             **** ENERGY FILE WAS UPDATED (job.en.tmp) ****

----------------
TOTAL SCF ENERGY
----------------

Total Energy       :       -182.77052612697588 Eh           -4973.43886 eV

Components:
Nuclear Repulsion  :        110.03159771409031 Eh            2994.11199 eV
Electronic Energy  :       -292.80213213948639 Eh           -7967.55108 eV
One Electron Energy:       -461.06745262011924 Eh          -12546.28323 eV
Two Electron Energy:        168.26532048063285 Eh            4578.73215 eV

Virial components:
Potential Energy   :       -386.72201446839347 Eh          -10523.24100 eV
Kinetic Energy     :        203.95148834141756 Eh            5549.80214 eV
Virial Ratio       :          1.89614705738757

DFT components:
N(Alpha)           :       10.999996120276 electrons
N(Beta)            :       10.999996120276 electrons
N(Total)           :       21.999992240552 electrons
E(X)               :      -18.845008158848 Eh       
E(C)               :       -1.001716091251 Eh       
E(XC)              :      -19.846724250099 Eh       

---------------
SCF CONVERGENCE
---------------

  Last Energy change         ...    6.0254e-12  Tolerance :   1.0000e-08
  Last MAX-Density change    ...    8.2423e-07  Tolerance :   1.0000e-07
  Last RMS-Density change    ...    1.1983e-07  Tolerance :   5.0000e-09
  Last DIIS Error            ...    9.2311e-07  Tolerance :   5.0000e-07
  Last Orbital Gradient      ...    3.1054e-07  Tolerance :   1.0000e-05
  Last Orbital Rotation      ...    2.6797e-07  Tolerance :   1.0000e-05


----------------
ORBITAL ENERGIES
----------------

  NO   OCC          E(Eh)            E(eV) 
   0   2.0000     -19.203581      -522.5560 
   1   2.0000     -19.203276      -522.5477 
   2   2.0000     -10.740019      -292.2508 
   3   2.0000      -1.279559       -34.8186 
   4   2.0000      -1.191805       -32.4307 
   5   2.0000      -0.971000       -26.4223 
   6   2.0000      -0.971000       -26.4223 
   7   2.0000      -0.519570       -14.1382 
   8   2.0000      -0.372239       -10.1291 
   9   2.0000      -0.372239       -10.1291 
  10   2.0000      -0.356255        -9.6942 
  11   0.0000       0.152678         4.1546 
  12   0.0000       0.226100         6.1525 
  13   0.0000       0.226100         6.1525 
  14   0.0000       0.315951         8.5975 
  15   0.0000       0.729105        19.8400 
  16   0.0000       0.801158        21.8006 
  17   0.0000       0.801158        21.8006 
  18   0.0000       0.807824        21.9820 
  19   0.0000       0.807824        21.9820 
  20   0.0000       0.840834        22.8803 
  21   0.0000       1.223407        33.2906 
  22   0.0000       1.341365        36.5004 
  23   0.0000       1.341365        36.5004 
  24   0.0000       1.364824        37.1388 
  25   0.0000       1.364825        37.1388 
  26   0.0000       1.593295        43.3558 
  27   0.0000       2.033196        55.3261 
  28   0.0000       2.567095        69.8542 
  29   0.0000       2.567106        69.8545 
  30   0.0000       2.960737        80.5658 
  31   0.0000       2.960737        80.5658 
  32   0.0000       3.275169        89.1219 
  33   0.0000       3.308208        90.0209 
  34   0.0000       3.564549        96.9963 
  35   0.0000       3.564554        96.9964 
  36   0.0000       4.151524       112.9687 
  37   0.0000       4.151524       112.9687 
  38   0.0000       4.493342       122.2700 
  39   0.0000       4.493342       122.2700 
  40   0.0000       6.416826       174.6107 
  41   0.0000       7.136828       194.2030 
------------------
MOLECULAR ORBITALS (RHF, ROHF)
------------------
                      0         1         2         3         4         5   
                 -19.20358 -19.20328 -10.74002  -1.27956  -1.19180  -0.97100
                   2.00000   2.00000   2.00000   2.00000   2.00000   2.00000
                  --------  --------  --------  --------  --------  --------
  0C   1s        -0.003263  0.000051 -0.971689  0.000008  0.376868  0.000000
  0C   2s         0.040421 -0.000633  0.101804  0.000016  0.032468  0.000000
  0C   3s        -0.003375  0.000053  0.008147 -0.000001 -0.054442  0.000000
  0C   1pz       -0.000000  0.000000  0.000000  0.000000  0.000000 -0.382933
  0C   1px       -0.000107 -0.006877  0.000001 -0.814582  0.000020 -0.000000
  0C   1py       -0.000000  0.000000  0.000000 -0.000000  0.000000 -0.350380
  0C   2pz        0.000000 -0.000000  0.000000  0.000000  0.000000 -0.093549
  0C   2px        0.000287  0.018319  0.000000 -0.068343  0.000002  0.000000
  0C   2py       -0.000000  0.000000  0.000000  0.000000  0.000000 -0.085596
  0C   1dz2       0.003903 -0.000061 -0.007723 -0.000003 -0.049484 -0.000000
  0C   1dxz       0.000000 -0.000000 -0.000000  0.000000 -0.000000 -0.000001
  0C   1dyz       0.000000 -0.000000 -0.000000 -0.000000 -0.000000  0.000000
  0C   1dx2y2    -0.006760  0.000106  0.013377  0.000006  0.085709  0.000000
  0C   1dxy       0.000000 -0.000000 -0.000000  0.000000 -0.000000 -0.000001
  1O   1s         0.686192 -0.707990 -0.029305 -0.238923 -0.202921 -0.000000
  1O   2s        -0.029720  0.040971 -0.055238 -0.165187 -0.513258 -0.000000
  1O   3s        -0.004982 -0.034557 -0.026667  0.227635 -0.165097 -0.000000
  1O   1pz        0.000000  0.000000 -0.000000 -0.000000  0.000000 -0.269296
  1O   1px        0.008936 -0.010237  0.034855  0.260184  0.153628 -0.000000
  1O   1py        0.000000  0.000000 -0.000000 -0.000000  0.000000 -0.246404
  1O   2pz       -0.000000 -0.000000 -0.000000 -0.000000 -0.000000  0.021215
  1O   2px        0.007797  0.001795  0.012602 -0.126770  0.042317  0.000000
  1O   2py       -0.000000  0.000000 -0.000000  0.000000 -0.000000  0.019412
  1O   1dz2       0.001153 -0.002593  0.003641  0.030036 -0.008771 -0.000000
  1O   1dxz      -0.000000 -0.000000  0.000000  0.000000 -0.000000  0.030252
  1O   1dyz      -0.000000 -0.000000  0.000000 -0.000000  0.000000 -0.000000
  1O   1dx2y2    -0.001996  0.004492 -0.006307 -0.052023  0.015192  0.000000
  1O   1dxy       0.000000 -0.000000  0.000000  0.000000 -0.000000  0.027680
  2O   1s         0.708039  0.686142 -0.029306  0.238914 -0.202934 -0.000000
  2O   2s        -0.030988 -0.040019 -0.055237  0.165147 -0.513269 -0.000000
  2O   3s        -0.003897  0.034695 -0.026667 -0.227646 -0.165088 -0.000000
  2O   1pz       -0.000000  0.000000 -0.000000  0.000000  0.000000 -0.269302
  2O   1px       -0.009252 -0.009952 -0.034855  0.260173 -0.153637  0.000000
  2O   1py        0.000000 -0.000000 -0.000000  0.000000  0.000000 -0.246409
  2O   2pz       -0.000000  0.000000 -0.000000  0.000000 -0.000000  0.021214
  2O   2px       -0.007736  0.002038 -0.012601 -0.126775 -0.042310 -0.000000
  2O   2py        0.000000 -0.000000 -0.000000 -0.000000 -0.000000  0.019411
  2O   1dz2       0.001233  0.002556  0.003641 -0.030036 -0.008770 -0.000000
  2O   1dxz      -0.000000 -0.000000 -0.000000  0.000000  0.000000 -0.030253
  2O   1dyz       0.000000 -0.000000 -0.000000 -0.000000 -0.000000 -0.000000
  2O   1dx2y2    -0.002136 -0.004427 -0.006307  0.052024  0.015190  0.000000
  2O   1dxy      -0.000000 -0.000000 -0.000000  0.000000  0.000000 -0.027681
                      6         7         8         9        10        11   
                  -0.97100  -0.51957  -0.37224  -0.37224  -0.35626   0.15268
                   2.00000   2.00000   2.00000   2.00000   2.00000   0.00000
                  --------  --------  --------  --------  --------  --------
  0C   1s        -0.000000  0.000002  0.000000 -0.000000 -0.285381  0.059769
  0C   2s        -0.000000 -0.000007  0.000000 -0.000000 -0.725245  0.708274
  0C   3s        -0.000000 -0.000000  0.000000 -0.000000 -0.244467  3.228987
  0C   1pz       -0.350380 -0.000000  0.000001 -0.000002 -0.000000 -0.000000
  0C   1px       -0.000000  0.390561  0.000000  0.000000 -0.000003  0.000001
  0C   1py        0.382933  0.000000 -0.000002 -0.000001  0.000000  0.000000
  0C   2pz       -0.085596 -0.000000  0.000000 -0.000002  0.000000  0.000000
  0C   2px        0.000000 -0.117031 -0.000000 -0.000000  0.000000 -0.000006
  0C   2py        0.093549  0.000000 -0.000002 -0.000000  0.000000  0.000000
  0C   1dz2       0.000000  0.000001 -0.000000  0.000000  0.083103  0.044273
  0C   1dxz      -0.000001 -0.000000  0.003416 -0.013536  0.000000 -0.000000
  0C   1dyz       0.000000 -0.000000  0.000000 -0.000000  0.000000  0.000000
  0C   1dx2y2    -0.000000 -0.000002  0.000000 -0.000000 -0.143938 -0.076683
  0C   1dxy       0.000001 -0.000000 -0.013536 -0.003416 -0.000000 -0.000000
  1O   1s         0.000000 -0.082113  0.000000  0.000000 -0.056157 -0.087427
  1O   2s         0.000000 -0.297567  0.000000  0.000000  0.147350 -0.034294
  1O   3s         0.000000 -0.364611 -0.000000 -0.000000  0.067116 -1.906343
  1O   1pz       -0.246404  0.000000  0.136699 -0.541627  0.000000 -0.000000
  1O   1px        0.000000 -0.428680 -0.000000 -0.000000 -0.506870 -0.036380
  1O   1py        0.269296  0.000000 -0.541627 -0.136699  0.000000 -0.000000
  1O   2pz        0.019412  0.000000  0.083654 -0.331450  0.000000 -0.000000
  1O   2px       -0.000000 -0.071925 -0.000000 -0.000000 -0.400524  0.257255
  1O   2py       -0.021215  0.000000 -0.331450 -0.083654  0.000000 -0.000000
  1O   1dz2       0.000000 -0.024826 -0.000000 -0.000000  0.003744  0.010710
  1O   1dxz       0.027680 -0.000000 -0.013747  0.054470 -0.000000  0.000000
  1O   1dyz      -0.000000 -0.000000  0.000000 -0.000000  0.000000  0.000000
  1O   1dx2y2    -0.000000  0.042999  0.000000  0.000000 -0.006485 -0.018551
  1O   1dxy      -0.030252 -0.000000  0.054470  0.013747 -0.000000  0.000000
  2O   1s         0.000000  0.082111 -0.000000 -0.000000 -0.056156 -0.087427
  2O   2s         0.000000  0.297573 -0.000000 -0.000000  0.147351 -0.034295
  2O   3s         0.000000  0.364609  0.000000  0.000000  0.067119 -1.906364
  2O   1pz       -0.246409 -0.000000 -0.136699  0.541624 -0.000000 -0.000000
  2O   1px       -0.000000 -0.428680 -0.000000 -0.000000  0.506873  0.036380
  2O   1py        0.269302 -0.000000  0.541624  0.136699  0.000000 -0.000000
  2O   2pz        0.019411 -0.000000 -0.083653  0.331448 -0.000000 -0.000000
  2O   2px        0.000000 -0.071924 -0.000000 -0.000000  0.400525 -0.257257
  2O   2py       -0.021214 -0.000000  0.331448  0.083653  0.000000 -0.000000
  2O   1dz2       0.000000  0.024825  0.000000  0.000000  0.003744  0.010710
  2O   1dxz      -0.027681 -0.000000 -0.013747  0.054469 -0.000000 -0.000000
  2O   1dyz      -0.000000 -0.000000 -0.000000  0.000000 -0.000000 -0.000000
  2O   1dx2y2    -0.000000 -0.042999 -0.000000 -0.000000 -0.006485 -0.018551
  2O   1dxy       0.030253 -0.000000  0.054469  0.013747  0.000000 -0.000000
                     12        13        14        15        16        17   
                   0.22610   0.22610   0.31595   0.72910   0.80116   0.80116
                   0.00000   0.00000   0.00000   0.00000   0.00000   0.00000
                  --------  --------  --------  --------  --------  --------
  0C   1s        -0.000000  0.000000 -0.000001 -0.251999  0.000000 -0.000000
  0C   2s        -0.000000  0.000000 -0.000005  4.812794 -0.000002  0.000000
  0C   3s         0.000000 -0.000000 -0.000012  1.676935 -0.000000  0.000000
  0C   1pz       -0.070666 -0.221580  0.000000 -0.000000 -0.340252 -1.097494
  0C   1px        0.000000 -0.000000 -0.097763 -0.000005 -0.000000  0.000000
  0C   1py        0.221580 -0.070666 -0.000000 -0.000000 -1.097494  0.340252
  0C   2pz        0.515194  1.615453 -0.000000 -0.000000 -0.469209 -1.513446
  0C   2px        0.000000 -0.000000 -3.244071  0.000007  0.000000 -0.000000
  0C   2py       -1.615453  0.515194 -0.000000 -0.000001 -1.513446  0.469209
  0C   1dz2       0.000000 -0.000000 -0.000000 -0.048128  0.000000 -0.000000
  0C   1dxz      -0.000000 -0.000000 -0.000000  0.000000  0.000022  0.000070
  0C   1dyz       0.000000  0.000000  0.000000 -0.000000 -0.000000 -0.000000
  0C   1dx2y2    -0.000000  0.000000  0.000000  0.083360 -0.000000  0.000000
  0C   1dxy       0.000000 -0.000000 -0.000000  0.000000  0.000070 -0.000022
  1O   1s        -0.000000  0.000000  0.062578  0.018040  0.000000 -0.000000
  1O   2s         0.000000 -0.000000 -0.000138 -0.234526  0.000000 -0.000000
  1O   3s        -0.000000  0.000000  2.879453 -2.633170  0.000001 -0.000000
  1O   1pz       -0.036720 -0.115139  0.000000  0.000000  0.053593  0.172867
  1O   1px       -0.000000  0.000000  0.153556 -0.304174  0.000000 -0.000000
  1O   1py        0.115139 -0.036720  0.000000  0.000000  0.172867 -0.053593
  1O   2pz       -0.134362 -0.421309  0.000000  0.000000  0.424294  1.368571
  1O   2px       -0.000000  0.000000  0.019704  1.723457 -0.000001  0.000000
  1O   2py        0.421309 -0.134362  0.000000  0.000000  1.368571 -0.424294
  1O   1dz2       0.000000 -0.000000 -0.001509  0.026460 -0.000000  0.000000
  1O   1dxz       0.009253  0.029015 -0.000000  0.000000  0.022130  0.071380
  1O   1dyz      -0.000000 -0.000000  0.000000 -0.000000 -0.000000 -0.000000
  1O   1dx2y2    -0.000000  0.000000  0.002614 -0.045830  0.000000 -0.000000
  1O   1dxy      -0.029015  0.009253 -0.000000  0.000000  0.071380 -0.022130
  2O   1s        -0.000000  0.000000 -0.062577  0.018041  0.000000 -0.000000
  2O   2s         0.000000 -0.000000  0.000138 -0.234532  0.000000 -0.000000
  2O   3s        -0.000000  0.000000 -2.879434 -2.633210  0.000001 -0.000000
  2O   1pz       -0.036720 -0.115139 -0.000000  0.000000  0.053557  0.172751
  2O   1px        0.000000 -0.000000  0.153558  0.304173 -0.000000  0.000000
  2O   1py        0.115139 -0.036720 -0.000000  0.000000  0.172751 -0.053557
  2O   2pz       -0.134362 -0.421307 -0.000000  0.000000  0.424414  1.368959
  2O   2px        0.000000 -0.000000  0.019714 -1.723479  0.000001 -0.000000
  2O   2py        0.421307 -0.134362 -0.000000  0.000000  1.368959 -0.424414
  2O   1dz2       0.000000 -0.000000  0.001509  0.026461 -0.000000  0.000000
  2O   1dxz      -0.009253 -0.029015 -0.000000 -0.000000 -0.022124 -0.071362
  2O   1dyz      -0.000000 -0.000000  0.000000  0.000000 -0.000000 -0.000000
  2O   1dx2y2    -0.000000  0.000000 -0.002614 -0.045831  0.000000 -0.000000
  2O   1dxy       0.029015 -0.009253 -0.000000 -0.000000 -0.071362  0.022124
                     18        19        20        21        22        23   
                   0.80782   0.80782   0.84083   1.22341   1.34136   1.34136
                   0.00000   0.00000   0.00000   0.00000   0.00000   0.00000
                  --------  --------  --------  --------  --------  --------
  0C   1s        -0.000000 -0.000000 -0.000000 -0.045780  0.000000  0.000000
  0C   2s         0.000000  0.000000  0.000004  0.221043 -0.000000 -0.000000
  0C   3s        -0.000000  0.000000  0.000000  3.223286 -0.000000 -0.000001
  0C   1pz       -0.000047 -0.000192  0.000000 -0.000000 -0.299978  0.012108
  0C   1px       -0.000000  0.000000  0.565932  0.000004 -0.000000 -0.000000
  0C   1py       -0.000192  0.000047 -0.000000 -0.000000 -0.012108 -0.299978
  0C   2pz       -0.000063 -0.000259  0.000000  0.000000  1.545915 -0.062397
  0C   2px        0.000000 -0.000000 -0.945597 -0.000005  0.000000  0.000000
  0C   2py       -0.000259  0.000063 -0.000000  0.000000  0.062397  1.545915
  0C   1dz2      -0.000000 -0.000000 -0.000001  0.274574 -0.000000  0.000000
  0C   1dxz      -0.102839 -0.423573 -0.000000  0.000000 -0.000001  0.000000
  0C   1dyz       0.000000 -0.000000  0.000000 -0.000000 -0.000001 -0.000000
  0C   1dx2y2     0.000000  0.000000  0.000002 -0.475577  0.000000  0.000000
  0C   1dxy      -0.423573  0.102839 -0.000000 -0.000000 -0.000000 -0.000001
  1O   1s         0.000000 -0.000000  0.009556  0.212564 -0.000000 -0.000000
  1O   2s        -0.000000  0.000000  0.055267  2.125882 -0.000000 -0.000000
  1O   3s         0.000001 -0.000000 -2.662736 -3.364108  0.000000  0.000001
  1O   1pz       -0.083823 -0.345249 -0.000000  0.000000  0.797039 -0.032171
  1O   1px        0.000000 -0.000000 -0.118948  0.115601 -0.000000 -0.000000
  1O   1py       -0.345249  0.083823 -0.000000  0.000000  0.032171  0.797039
  1O   2pz        0.272646  1.122977  0.000000 -0.000000 -1.222314  0.049336
  1O   2px       -0.000001  0.000000  2.736993  0.163565 -0.000000 -0.000000
  1O   2py        1.122977 -0.272646  0.000001 -0.000000 -0.049336 -1.222314
  1O   1dz2      -0.000000  0.000000  0.007990  0.016495 -0.000000  0.000000
  1O   1dxz      -0.013177 -0.054274 -0.000000  0.000000  0.120354 -0.004858
  1O   1dyz       0.000000  0.000000  0.000000 -0.000000 -0.000000 -0.000000
  1O   1dx2y2     0.000000  0.000000 -0.013838 -0.028570  0.000000  0.000000
  1O   1dxy      -0.054274  0.013177 -0.000000  0.000000  0.004858  0.120354
  2O   1s        -0.000000  0.000000 -0.009557  0.212564 -0.000000 -0.000000
  2O   2s         0.000000 -0.000000 -0.055271  2.125894 -0.000000 -0.000000
  2O   3s        -0.000001  0.000000  2.662737 -3.364139  0.000000  0.000001
  2O   1pz        0.083837  0.345308  0.000000  0.000000  0.797037 -0.032171
  2O   1px        0.000000 -0.000000 -0.118949 -0.115605  0.000000  0.000000
  2O   1py        0.345308 -0.083837  0.000000  0.000000  0.032171  0.797037
  2O   2pz       -0.272531 -1.122503 -0.000000 -0.000000 -1.222316  0.049336
  2O   2px       -0.000001  0.000000  2.736992 -0.163566  0.000000  0.000000
  2O   2py       -1.122503  0.272531 -0.000001 -0.000000 -0.049336 -1.222316
  2O   1dz2       0.000000 -0.000000 -0.007990  0.016495 -0.000000  0.000000
  2O   1dxz      -0.013183 -0.054299 -0.000000 -0.000000 -0.120354  0.004858
  2O   1dyz      -0.000000 -0.000000  0.000000  0.000000 -0.000000 -0.000000
  2O   1dx2y2    -0.000000 -0.000000  0.013838 -0.028571  0.000000  0.000000
  2O   1dxy      -0.054299  0.013183 -0.000000 -0.000000 -0.004858 -0.120354
                     24        25        26        27        28        29   
                   1.36482   1.36482   1.59330   2.03320   2.56710   2.56711
                   0.00000   0.00000   0.00000   0.00000   0.00000   0.00000
                  --------  --------  --------  --------  --------  --------
  0C   1s        -0.000000 -0.000000  0.000001 -0.033294 -0.000000 -0.000000
  0C   2s         0.000000  0.000000 -0.000001  6.752326  0.000000  0.000000
  0C   3s         0.000000  0.000000 -0.000007  1.677387  0.000000  0.000000
[...]

------------------------------------------------------------------------------
                            ORCA SCF RESPONSE CALCULATION
------------------------------------------------------------------------------

GBWName                                 ... job.gbw
Number of atoms                         ...      3
Number of basis functions               ...     42
Max core memory                         ...   1024 MB

Electric field perturbation             ... YES
Quadrupolar field perturbation          ...  NO
Magnetic field perturbation (no GIAO)   ...  NO
Magnetic field perturbation (with GIAO) ...  NO
Linear momentum (velocity) perturbation ...  NO
Spin-orbit coupling perturbation        ...  NO
Choice of electric origin               ... Center of mass
Position of electric origin             ...     0.000000    -0.000000    -0.000000
Choice of magnetic origin               ... GIAO
Position of magnetic origin             ...     0.000000     0.000000     0.000000
Nuclear geometric perturbations         ... YES (   9 perturbations)
Nucleus-orbit perturbations             ...  NO (   0 perturbations)
Spin-dipole/Fermi contact perturbations ...  NO (   0 perturbations)

Total number of real perturbations      ...     12
Total number of imaginary perturbations ...      0
Total number of triplet perturbations   ...      0
Total number of SOC perturbations       ...      0


                                **********************
                                * REAL PERTURBATIONS *
                                **********************



-------------------
SHARK CP-SCF DRIVER
-------------------

Dimension of the orbital basis          ...     42
Dimension of the CPSCF-problem          ...    341
Number of operators                     ...      1
Max. number of iterations               ...    128
Convergence Tolerance                   ... 1.0e-04
Number of perturbations                 ...     12
Perturbation type                       ... REAL

----------------------------
POPLE LINEAR EQUATION SOLVER
----------------------------

  ITERATION   0:   ||err||_max =   7.4112e-01 (   0.1 sec   0/ 12 done)
  ITERATION   1:   ||err||_max =   6.6653e-02 (   0.1 sec   0/ 12 done)
  ITERATION   2:   ||err||_max =   9.0664e-03 (   0.1 sec   0/ 12 done)
  ITERATION   3:   ||err||_max =   1.6440e-03 (   0.1 sec   4/ 12 done)
  ITERATION   4:   ||err||_max =   2.7683e-04 (   0.1 sec  10/ 12 done)
  ITERATION   5:   ||err||_max =   2.7624e-05 (   0.1 sec  12/ 12 done)

CP-SCF equations solved in   0.6 sec
Response densities calculated in   0.0 sec

Maximum memory used throughout the entire SCFRESP-calculation: 7.1 MB

------------------------------------------------------------------------------
                              ORCA PROPERTY CALCULATIONS
------------------------------------------------------------------------------

GBWName                                 ... job.gbw
Number of atoms                         ...      3
Number of basis functions               ...     42
Max core memory                         ...   1024 MB

Electric properties:
Dipole moment                           ... YES
Quadrupole moment                       ...  NO
Static polarizability (Dipole/Dipole)   ... YES
Static polarizability (Dipole/Quad.)    ...  NO
Static polarizability (Quad./Quad.)     ...  NO
Static polarizability (Velocity)        ...  NO

Atomic electric properties:
Dipole moment                           ...  NO
Quadrupole moment                       ...  NO
Static polarizability                   ...  NO

Choice of electric origin               ... Center of mass
Position of electric origin             ...     0.000000    -0.000000    -0.000000

General magnetic properties:
Magnetizability                         ...  NO

EPR properties:
g-Tensor (aka g-matrix)                 ...  NO
Zero-Field splitting spin-orbit         ...  NO
Zero-field splitting spin-spin          ...  NO
Hyperfine couplings                     ...  NO (   0 nuclei)
Quadrupole couplings                    ...  NO (   0 nuclei)
Contact density                         ...  NO (   0 nuclei)

NMR properties:
Chemical shifts                         ...  NO (   0 nuclei)
Spin-rotation constants                 ...  NO (   0 nuclei)
Spin-spin couplings                     ...  NO (   0 nuclei,    0 pairs)

Choice of magnetic origin               ... GIAO
Position of magnetic origin             ...     0.000000     0.000000     0.000000

Properties with geometric perturbations:
SCF Hessian                             ... YES
IR spectrum                             ... YES
VCD spectrum                            ...  NO
X-ray spectroscopy properties:
SCF XES/XAS/RIXS spectra                ...  NO


-------------
DIPOLE MOMENT
-------------

Method             : SCF
Type of density    : Electron Density
Multiplicity       :   1
Irrep              :   0
Energy             :  -182.7705261269758807 Eh
Relativity type    : 
Basis              : AO
                                X                 Y                 Z
Electronic contribution:     -0.000013635       0.000000062       0.000000006
Nuclear contribution   :      0.000000017      -0.000000000      -0.000000000
                        -----------------------------------------
Total Dipole Moment    :     -0.000013618       0.000000062       0.000000006
                        -----------------------------------------
Magnitude (a.u.)       :      0.000013619
Magnitude (Debye)      :      0.000034616



--------------------
Rotational spectrum 
--------------------
 
Rotational constants in cm-1:             0.000000             1.390230             1.390230 
Rotational constants in MHz :             0.000000         41678.051531         41678.051531 

Dipole components along the rotational axes: 
x,y,z [a.u.] :     0.000014     0.000000    -0.000000 
x,y,z [Debye]:     0.000035     0.000000    -0.000000 

 

Dipole moment calculation done in   0.0 sec 


---------------------------------------------------
STATIC POLARIZABILITY TENSOR (Dipole/Dipole)
---------------------------------------------------

Method             : SCF
Type of density    : Electron Density
Type of derivative : Electric Field (Direction=X)
Multiplicity       :   1
Irrep              :   0
Relativity type    : 
Basis              : AO

The raw cartesian tensor (atomic units):
       8.406965136         0.000000013         0.000000034  
       0.000000013         4.169164534         0.000000001  
       0.000000034         0.000000001         4.169164536  
diagonalized tensor: 
       4.169164533         4.169164536         8.406965136  

Orientation: 
       0.000000000        -0.000000009         1.000000000  
      -0.945940392         0.324340521         0.000000003  
       0.324340521         0.945940392         0.000000008  

Isotropic polarizability :   5.58176


Polarizability tensor calculation done in   0.0 sec 

-----------
SCF HESSIAN
-----------

Occupied/Occupied contributions to the Hessian:
   => Occupied/Occupied contributions              ... done (  0.0 sec)
Perturbed density contributions to the Hessian:
   => Perturbed density contributions              ... done (  0.0 sec)
Explicit contributions to the Hessian:
   => Nuclear repulsion Hessian                    ... done (  0.0 sec)
   => HCore and overlap Hessian                    ... done (  0.0 sec)
   => RI-J Hessian                                 ... done (  0.2 sec)
   => COSX Hessian                                 ... done ( 10.7 sec)
   => XC-Hessian                                   ... done (  0.7 sec)
   => Explicit contributions done
E-field response densities           ... done
Dipole derivatives                                 ... done (  0.0 sec)
Mass weighting the Hessian           ... done
Calculating normal modes             ... done
Scaling frequencies                  ... done

-----------------------
VIBRATIONAL FREQUENCIES
-----------------------

Scaling factor for frequencies =  1.000000000  (already applied!)

     0:       0.00 cm**-1
     1:       0.00 cm**-1
     2:       0.00 cm**-1
     3:       0.00 cm**-1
     4:       0.00 cm**-1
     5:   -6529.68 cm**-1  ***imaginary mode***
     6:   -6529.68 cm**-1  ***imaginary mode***
     7:    7373.47 cm**-1
     8:   14061.10 cm**-1


------------
NORMAL MODES
------------

These modes are the Cartesian displacements weighted by the diagonal matrix
M(i,i)=1/sqrt(m[i]) where m[i] is the mass of the displaced atom
Thus, these vectors are normalized but *not* orthogonal

                  0          1          2          3          4          5    
      0       0.000000   0.000000   0.000000   0.000000   0.000000   0.000000
      1       0.000000   0.000000   0.000000   0.000000   0.000000   0.865073
      2       0.000000   0.000000   0.000000   0.000000   0.000000  -0.178327
      3       0.000000   0.000000   0.000000   0.000000   0.000000  -0.000000
      4       0.000000   0.000000   0.000000   0.000000   0.000000  -0.324719
      5       0.000000   0.000000   0.000000   0.000000   0.000000   0.066938
      6       0.000000   0.000000   0.000000   0.000000   0.000000   0.000000
      7       0.000000   0.000000   0.000000   0.000000   0.000000  -0.324721
      8       0.000000   0.000000   0.000000   0.000000   0.000000   0.066938
                  6          7          8    
      0      -0.000000  -0.000009  -0.883262
      1      -0.178327   0.000000   0.000000
      2      -0.865073   0.000000   0.000000
      3       0.000000   0.707110   0.331542
      4       0.066938  -0.000000  -0.000000
      5       0.324719  -0.000000  -0.000000
      6      -0.000000  -0.707103   0.331553
      7       0.066938  -0.000000   0.000000
      8       0.324721  -0.000000   0.000000


-----------
IR SPECTRUM
-----------

 Mode   freq       eps      Int      T**2         TX        TY        TZ
       cm**-1   L/(mol*cm) km/mol    a.u.
----------------------------------------------------------------------------
  7:   7373.47   0.000000    0.00  0.000000  (-0.000001  0.000000 -0.000000)
  8:  14061.10   0.259549  1311.65  0.005760  (-0.075896 -0.000000 -0.000000)

* The epsilon (eps) is given for a Dirac delta lineshape.
** The dipole moment derivative (T) already includes vibrational overlap.

The first frequency considered to be a vibration is 7
The total number of vibrations considered is 2


--------------------------
THERMOCHEMISTRY AT 298.15K
--------------------------

Temperature         ...   298.15 K
Pressure            ...     1.00 atm
Total Mass          ...    44.01 AMU
Quasi RRHO          ...     True
Cut-Off Frequency   ...     1.00 cm^-1
The molecule is recognized as being linear

Throughout the following assumptions are being made:
  (1) The electronic state is orbitally nondegenerate
  (2) There are no thermally accessible electronically excited states
  (3) Hindered rotations indicated by low frequency modes are not
      treated as such but are treated as vibrations and this may
      cause some error
  (4) All equations used are the standard statistical mechanics
      equations for an ideal gas
  (5) All vibrations are strictly harmonic

freq.    7373.47  E(vib)   ...       0.00 
freq.   14061.10  E(vib)   ...       0.00 

------------
INNER ENERGY
------------

The inner energy is: U= E(el) + E(ZPE) + E(vib) + E(rot) + E(trans)
    E(el)   - is the total energy from the electronic structure calculation
              = E(kin-el) + E(nuc-el) + E(el-el) + E(nuc-nuc)
    E(ZPE)  - the the zero temperature vibrational energy from the frequency calculation
    E(vib)  - the the finite temperature correction to E(ZPE) due to population
              of excited vibrational states
    E(rot)  - is the rotational thermal energy
    E(trans)- is the translational thermal energy

Summary of contributions to the inner energy U:
Electronic energy                ...   -182.77052613 Eh
Zero point energy                ...      0.04883154 Eh      30.64 kcal/mol
Thermal vibrational correction   ...      0.00000000 Eh       0.00 kcal/mol
Thermal rotational correction    ...      0.00094418 Eh       0.59 kcal/mol
Thermal translational correction ...      0.00141627 Eh       0.89 kcal/mol
-----------------------------------------------------------------------
Total thermal energy                   -182.71933414 Eh


Summary of corrections to the electronic energy:
(perhaps to be used in another calculation)
Total thermal correction                  0.00236045 Eh       1.48 kcal/mol
Non-thermal (ZPE) correction              0.04883154 Eh      30.64 kcal/mol
-----------------------------------------------------------------------
Total correction                          0.05119199 Eh      32.12 kcal/mol


--------
ENTHALPY
--------

The enthalpy is H = U + kB*T
                kB is Boltzmann's constant
Total thermal energy              ...   -182.71933414 Eh 
Thermal Enthalpy correction       ...      0.00094421 Eh       0.59 kcal/mol
-----------------------------------------------------------------------
Total Enthalpy                    ...   -182.71838993 Eh


Note: Rotational entropy computed according to Herzberg 
Infrared and Raman Spectra, Chapter V,1, Van Nostrand Reinhold, 1945 
Point Group:  D(inf)h, Symmetry Number:   1  
Rotational constants in cm-1:     0.000000     1.390230     1.390230 

Vibrational entropy computed according to the QRRHO of S. Grimme
Chem.Eur.J. 2012 18 9955 using a reference frequency of 100.0 cm-1


-------
ENTROPY
-------

The entropy contributions are T*S = T*(S(el)+S(vib)+S(rot)+S(trans))
     S(el)   - electronic entropy
     S(vib)  - vibrational entropy
     S(rot)  - rotational entropy
     S(trans)- translational entropy
The entropies will be listed as multiplied by the temperature to get
units of energy

Electronic entropy                ...      0.00000000 Eh      0.00 kcal/mol
Vibrational entropy               ...     -0.00000000 Eh     -0.00 kcal/mol
Rotational entropy                ...      0.00566918 Eh      3.56 kcal/mol
Translational entropy             ...      0.01770880 Eh     11.11 kcal/mol
-----------------------------------------------------------------------
Final entropy term                ...      0.02337798 Eh     14.67 kcal/mol


-------------------
GIBBS FREE ENERGY
-------------------

The Gibbs free energy is G = H - T*S

Total enthalpy                    ...   -182.71838993 Eh 
Total entropy correction          ...     -0.02337798 Eh    -14.67 kcal/mol
-----------------------------------------------------------------------
Final Gibbs free energy         ...   -182.74176791 Eh

For completeness - the Gibbs free energy minus the electronic energy
G-E(el)                           ...      0.02875821 Eh     18.05 kcal/mol


Maximum memory used throughout the entire PROP-calculation: 10.1 MB

--------------------------------
SUGGESTED CITATIONS FOR THIS RUN
--------------------------------

Below you find a list of papers that are relevant to this ORCA run
We neither can nor want to force you to cite these papers, but we appreciate if you do
You receive ORCA, which is the product of decades of hard work by many enthusiastic individuals, for free
The only thing we kindly ask in return is that you cite our papers,
We deeply appreciate it, if you show your appreciation for ORCA by not just citing the generic ORCA reference.

Please note that relegating all ORCA citations to the supporting information does *not* help us.
SI sections are not indexed - citations you put there will not count into any citation statistics
But we need these citations in order to attract the funding resources that allow us to do what we are doing

Therefore, if you are a happy ORCA user, please consider citing a few of the papers listed below in the main body of your paper

In addition to the list printed below, the program has created the file job.bibtex that contains the list in bibtex format
You can import this file easily into all common literature databanks and citation aid programs


List of essential papers. We consider these as the minimum necessary citations

  1. Neese,F.
     Software update: the ORCA program system, version 5.0
     WIRES Comput. Molec. Sci., 2022 12(1)e1606
     doi.org/10.1002/wcms.1606

List of papers to cite with high priority. The work reported in these papers was absolutely
necessary for this run to complete.
Our perspective: the developers of density functionals and basis sets usually get cited in chemistry papers
Good! But without the algorithms to do something with them, the functionals or basis sets would not do anything.
Hence, in our opinion, the algorithm design and method developments papers are equally worthy of getting cited

  1. Neese,F.
     An improvement of the resolution of the identity approximation for the formation of the Coulomb matrix
     J. Comp. Chem., 2003 24(14)1740-1747
     doi.org/10.1002/jcc.10318
  2. Neese,F.; Wennmohs,F.; Hansen,A.; Becker,U.
     Efficient, approximate and parallel Hartree-Fock and hybrid DFT calculations. A 'chain-of-spheres' algorithm for the Hartree-Fock exchange
     Chem. Phys., 2009 356(1-3)98-109
     doi.org/10.1016/j.chemphys.2008.10.036
  3. Bykov,D.; Petrenko,T.; Izsak,R.; Kossmann,S.; Becker,U.; Valeev,E.; Neese,F.
     Efficient implementation of the analytic second derivatives of Hartree-Fock and hybrid DFT energies: a detailed analysis of different approximations
     Molec. Phys., 2015 113 1961-1977
     doi.org/10.1080/00268976.2015.1025114
  4. Helmich-Paris,B.; de Souza,B.; Neese,F.; Izsák,R.
     An improved chain of spheres for exchange algorithm
     J. Chem. Phys., 2021 155 104109
     doi.org/doi: 10.1063/5.0058766.
  5. Neese,F.
     The SHARK Integral Generation and Digestion System
     J. Comp. Chem., 2022  1-16
     doi.org/10.1002/jcc.26942

List of suggested additional citations. These are papers that are important in the 'surrounding' of 
of this run, or papers that preceded the highly important papers. If you like your results we are grateful for a citation.

  1. Izsak,R.; Neese,F.
     An overlap fitted chain of spheres exchange method
     J. Chem. Phys., 2011 135 144105
     doi.org/10.1063/1.3646921
  2. Izsak,R.; Hansen,A.; Neese,F.
     The resolution of identity and chain of spheres approximations for the LPNO-CCSD singles Fock term
     Molec. Phys., 2012 110 2413-2417
     doi.org/10.1080/00268976.2012.687466
  3. Neese,F.
     The ORCA program system
     WIRES Comput. Molec. Sci., 2012 2(1)73-78
     doi.org/10.1002/wcms.81
  4. Izsak,R.; Neese,F.; Klopper,W.
     Robust fitting techniques in the chain of spheres approximation to the Fock exchange: The role of the complementary space
     J. Chem. Phys., 2013 139 
     doi.org/10.1063/1.4819264
  5. Neese,F.
     Software update: the ORCA program system, version 4.0
     WIRES Comput. Molec. Sci., 2018 8(1)1-6
     doi.org/10.1002/wcms.1327
  6. Neese,F.; Wennmohs,F.; Becker,U.; Riplinger,C.
     The ORCA quantum chemistry program package
     J. Chem. Phys., 2020 152 Art. No. L224108
     doi.org/10.1063/5.0004608

List of optional additional citations

  1. Neese,F.
     Approximate second-order SCF convergence for spin unrestricted wavefunctions
     Chem. Phys. Lett., 2000 325(1-3)93-98
     doi.org/10.1016/s0009-2614(00)00662-x

Timings for individual modules:

Sum of individual times          ...       14.708 sec (=   0.245 min)
Startup calculation              ...        0.169 sec (=   0.003 min)   1.1 %
SCF iterations                   ...        0.641 sec (=   0.011 min)   4.4 %
Property integrals               ...        1.571 sec (=   0.026 min)  10.7 %
SCF Response                     ...        0.640 sec (=   0.011 min)   4.4 %
Property calculations            ...       11.687 sec (=   0.195 min)  79.5 %
                             ****ORCA TERMINATED NORMALLY****
TOTAL RUN TIME: 0 days 0 hours 0 minutes 14 seconds 769 msec
