
                                 *****************
                                 * O   R   C   A *
                                 *****************

                                            #,                                       
                                            ###                                      
                                            ####                                     
                                            #####                                    
                                            ######                                   
                                           ########,                                 
                                     ,,################,,,,,                         
                               ,,#################################,,                 
                          ,,##########################################,,             
                       ,#########################################, ''#####,          
                    ,#############################################,,   '####,        
                  ,##################################################,,,,####,       
                ,###########''''           ''''###############################       
              ,#####''   ,,,,##########,,,,          '''####'''          '####       
            ,##' ,,,,###########################,,,                        '##       
           ' ,,###''''                  '''############,,,                           
         ,,##''                                '''############,,,,        ,,,,,,###''
      ,#''                                            '''#######################'''  
     '                                                          ''''####''''         
             ,#######,   #######,   ,#######,      ##                                
            ,#'     '#,  ##    ##  ,#'     '#,    #''#        ,####,   ,####,        
            ##       ##  ##   ,#'  ##            #'  '#       #'       #'  '#        
            ##       ##  #######   ##           ,######,      #####,   #    #        
            '#,     ,#'  ##    ##  '#,     ,#' ,#      #,     #,   #   #,  ,#        
             '#######'   ##     ##  '#######'  #'      '#     '####' # '####'        



                #########################################################
                #                        -***-                          #
                #          Department of theory and spectroscopy        #
                #                                                       #
                #                      Frank Neese                      #
                #                                                       #
                #     Directorship, Architecture, Infrastructure        #
                #                    SHARK, DRIVERS                     #
                #        Core code/Algorithms in most modules           #
                #                                                       #
                #        Max Planck Institute fuer Kohlenforschung      #
                #                Kaiser Wilhelm Platz 1                 #
                #                 D-45470 Muelheim/Ruhr                 #
                #                      Germany                          #
                #                                                       #
                #                  All rights reserved                  #
                #                        -***-                          #
                #########################################################


                         Program Version 6.0.1  -  RELEASE   -


 With contributions from (in alphabetic order):
[Max-Planck-Institut fuer Kohlenforschung]                               
  Daniel Aravena         : Magnetic Suceptibility                        
  Michael Atanasov       : Ab Initio Ligand Field Theory (pilot matlab implementation)
  Alexander A. Auer      : GIAO ZORA, VPT2 properties, NMR spectrum      
  Ute Becker             : All parallelization in ORCA, NUMFREQ, NUMCALC 
  Giovanni Bistoni       : ED, misc. LED, open-shell LED, HFLD           
  Martin Brehm           : Molecular dynamics                            
  Dmytro Bykov           : pre 5.0 version of the SCF Hessian            
  Marcos Casanova-Páez   : Triplet and SCS-CIS(D). UHF-(DLPNO)-IP/EA/STEOM-CCSD. UHF-CVS-IP/STEOM-CCSD   
  Vijay G. Chilkuri      : MRCI spin determinant printing, contributions to CSF-ICE 
  Pauline Colinet        : FMM embedding                                 
  Dipayan Datta          : RHF DLPNO-CCSD density                        
  Achintya Kumar Dutta   : EOM-CC, STEOM-CC                              
  Nicolas Foglia         : Exact transition moments, OPA infrastructure, MCD improvements    
  Dmitry Ganyushin       : Spin-Orbit,Spin-Spin,Magnetic field MRCI      
  Miquel Garcia-Rates    : C-PCM and meta-GGA Hessian, CCSD/C-PCM, Gaussian charge scheme 
  Tiago L. C. Gouveia    : GS-ROHF, GS-ROCIS                             
  Yang Guo               : DLPNO-NEVPT2, F12-NEVPT2, CIM, IAO-localization        
  Andreas Hansen         : Spin unrestricted coupled pair/coupled cluster methods 
  Ingolf Harden          : AUTO-CI MPn and infrastructure                
  Benjamin Helmich-Paris : MC-RPA, TRAH-(SCF,CASSCF), AVAS, COSX integrals, SCF dyn. polar. 
  Lee Huntington         : MR-EOM, pCC                                   
  Robert Izsak           : Overlap fitted RIJCOSX, COSX-SCS-MP3, EOM     
  Riya Kayal             : Wick's Theorem for AUTO-CI, AUTO-CI UHF-CCSDT 
  Emily Kempfer          : AUTO-CI, RHF CISDT and CCSDT                  
  Christian Kollmar      : KDIIS, OOCD, Brueckner-CCSD(T), CCSD density, CASPT2, CASPT2-K, improved NEVPT2 
  Axel Koslowski         : Symmetry handling                             
  Simone Kossmann        : meta-GGA functionals, TD-DFT gradient, OOMP2, (MP2 Hessian; deprecated post 5.0) 
  Lucas Lang             : DCDCAS                                        
  Marvin Lechner         : AUTO-CI (C++ implementation), FIC-MRCC        
  Spencer Leger          : CASSCF response                               
  Dagmar Lenk            : GEPOL surface, SMD, ORCA-2-JSON               
  Dimitrios Liakos       : Extrapolation schemes; Compound Job, initial MDCI parallelization 
  Dimitrios Manganas     : Further ROCIS development; embedding schemes. LFT, Crystal Embedding 
  Dimitrios Pantazis     : SARC Basis sets                               
  Anastasios Papadopoulos: AUTO-CI, single reference methods and gradients 
  Taras Petrenko         : pre 6.0 DFT Hessian and TD-DFT gradient, (ASA, deprecated), ECA, 1-Electron XAS/XES, NRVS 
  Peter Pinski           : DLPNO-MP2, DLPNO-MP2 Gradient                 
  Christoph Reimann      : Effective Core Potentials                     
  Marius Retegan         : Local ZFS, SOC                                
  Christoph Riplinger    : Optimizer, TS searches, QM/MM, DLPNO-CCSD(T), (RO)-DLPNO pert. Triples 
  Michael Roemelt        : Original ROCIS implementation                 
  Masaaki Saitow         : Open-shell DLPNO-CCSD energy and density      
  Barbara Sandhoefer     : DKH picture change effects                    
  Kantharuban Sivalingam : CASSCF convergence/infrastructure, NEVPT2 and variants, FIC-MRCI 
  Bernardo de Souza      : ESD, SOC TD-DFT                               
  Georgi L. Stoychev     : AutoAux, RI-MP2 NMR, DLPNO-MP2 response, X2C  
  Van Anh Tran           : RI-MP2 g-tensors                              
  Willem Van den Heuvel  : Paramagnetic NMR                              
  Zikuan Wang            : NOTCH, Electric field optimization            
  Frank Wennmohs         : Technical directorship and infrastructure     
  Hang Xu                : AUTO-CI-Response properties                   
                                                                         
[FACCTs GmbH]                                                            
  Markus Bursch, Miquel Garcia-Rates, Christoph Riplinger, Bernardo de Souza, Georgi L. Stoychev 
                                                                 
  APM, Basis sets (HGBS, AHGBS, def-TZVP (Ac-Lr), def2-XVPD (La-Lu)), CI-OPT, improved COSX, DLPNO-Multilevel,           
  DOCKER, DRACO, updates on ESD, GOAT, IRC, LR-CPCM, MBIS, meta-GGA TD-DFT gradient, ML-optimized integration grids, 
  MM, NACMEs, nearIR, NEB, NEB-TS, NL-DFT gradient (VV10), 2- and 3-layer-ONIOM, interface openCOSMO-RS, QMMM,   
  Crystal-QMMM, SF, symmetry and pop. for TD-DFT, r2SCAN hybrids, SOLVATOR                                   
                                                                         
[Other institutions]                                                     
  V. Asgeirsson          : NEB                                           
  Christoph Bannwarth    : sTDA-DFT, sTD-DFT, PBEh-3c, B97-3c, D3        
  Sebastian Ehlert       : rSCAN, r2SCAN, r2SCAN-3c, D4, dhf basis sets  
  Marvin Friede          : D4 for Fr, Ra, Ac-Lr                          
  Lars Goerigk           : TD-DFT with DH, B97 family of functionals     
  Stefan Grimme          : VdW corrections, initial TS optimization, DFT functionals, gCP, sTDA/sTD-DF 
  Waldemar Hujo          : DFT-NL                                        
  H. Jonsson             : NEB                                           
  Holger Kruse           : gCP                                           
  Marcel Mueller         : wB97X-3c, vDZP basis set                      
  Hagen Neugebauer       : wr2SCAN                                       
  Tobias Risthaus        : range-separated hybrid DFT                    
  Lukas Wittmann         : regularized MP2, r2SCAN double-hybrids, wr2SCAN        
                                                                         
We gratefully acknowledge several colleagues who have allowed us to      
interface, adapt or use parts of their codes:                            
  Ed Valeev, F. Pavosevic, A. Kumar             : LibInt (2-el integral package), F12 methods 
  Garnet Chan, S. Sharma, J. Yang, R. Olivares  : DMRG                   
  Ulf Ekstrom                                   : XCFun DFT Library      
  Mihaly Kallay                                 : mrcc  (arbitrary order and MRCC methods)
  Frank Weinhold                                : gennbo (NPA and NBO analysis)           
  Simon Mueller                                 : openCOSMO-RS                            
  Christopher J. Cramer and Donald G. Truhlar   : smd solvation model                     
  S Lehtola, MJT Oliveira, MAL Marques          : LibXC Library                           
  Liviu Ungur et al                             : ANISO software                          


 Your calculation uses the libint2 library for the computation of 2-el integrals
 For citations please refer to: http://libint.valeyev.net

 Your ORCA version has been built with support for libXC version: 6.2.2
 For citations please refer to: https://libxc.gitlab.io

 This ORCA versions uses:
   CBLAS   interface :  Fast vector & matrix operations
   LAPACKE interface :  Fast linear algebra routines
   SCALAPACK package :  Parallel linear algebra routines
   Shared memory     :  Shared parallel matrices
   BLAS/LAPACK       :  OpenBLAS 0.3.27  USE64BITINT DYNAMIC_ARCH NO_AFFINITY SkylakeX SINGLE_THREADED
        Core in use  :  SkylakeX
   Copyright (c) 2011-2014, The OpenBLAS Project


Warning: RI is on but no J-basis has been assigned. Assigning Def2/J (nothing to worry about!)
================================================================================

----- Orbital basis set information -----
Your calculation utilizes the basis: def2-SVP
   F. Weigend and R. Ahlrichs, Phys. Chem. Chem. Phys. 7, 3297 (2005).

----- AuxJ basis set information -----
Your calculation utilizes the auxiliary basis: def2/J
   F. Weigend, Phys. Chem. Chem. Phys. 8, 1057 (2006).

================================================================================
                                        WARNINGS
                       Please study these warnings very carefully!
================================================================================

WARNING: Old DensityContainer found on disk!
         Will remove this file - 
         If you want to keep old densities, please start your calculation with a different basename. 


WARNING: Analytical Hessian not available for calculation of RAMAN spectra
       : If you need RAMAN spectra, please choose NumFreq!
       : Will only calculate polarizabilties



================================================================================
                                       INPUT FILE
================================================================================
NAME = job.inp
|  1> ! B3LYP def2-SVP TightSCF Freq
|  2> %output
|  3>   PrintLevel 5
|  4> end
|  5> * xyz 0 1
|  6>    C          0.0148869341          0.0000000191          0.0000000014
|  7>    O          0.6107517201         -0.0000000092         -0.0000000006
|  8>    O         -0.6204347838         -0.0000000100         -0.0000000008
|  9> *
| 10> %elprop
| 11>  Polar 1
| 12> end
| 13> 
| 14>                          ****END OF INPUT****
================================================================================

                       ****************************
                       * Single Point Calculation *
                       ****************************

---------------------------------
CARTESIAN COORDINATES (ANGSTROEM)
---------------------------------
  C      0.014887    0.000000    0.000000
  O      0.610752   -0.000000   -0.000000
  O     -0.620435   -0.000000   -0.000000

----------------------------
CARTESIAN COORDINATES (A.U.)
----------------------------
  NO LB      ZA    FRAG     MASS         X           Y           Z
   0 C     6.0000    0    12.011    0.028132    0.000000    0.000000
   1 O     8.0000    0    15.999    1.154153   -0.000000   -0.000000
   2 O     8.0000    0    15.999   -1.172452   -0.000000   -0.000000

--------------------------------
INTERNAL COORDINATES (ANGSTROEM)
--------------------------------
 C      0   0   0     0.000000000000     0.00000000     0.00000000
 O      1   0   0     0.595864786000     0.00000000     0.00000000
 O      1   2   0     0.635321717900   179.99999510     0.00000000

---------------------------
INTERNAL COORDINATES (A.U.)
---------------------------
 C      0   0   0     0.000000000000     0.00000000     0.00000000
 O      1   0   0     1.126021258388     0.00000000     0.00000000
 O      1   2   0     1.200584053763   179.99999510     0.00000000

---------------------
BASIS SET INFORMATION
---------------------
There are 2 groups of distinct atoms

 Group   1 Type C   : 7s4p1d contracted to 3s2p1d pattern {511/31/1}
 Group   2 Type O   : 7s4p1d contracted to 3s2p1d pattern {511/31/1}

Atom   0C    basis set group =>   1
Atom   1O    basis set group =>   2
Atom   2O    basis set group =>   2

-------------------------
BASIS SET IN INPUT FORMAT
-------------------------

 # Basis set for element : C 
 NewGTO C 
 S 5 
   1    1238.4016938000      0.0055173650
   2     186.2900499200      0.0410888285
   3      42.2511763460      0.1822538213
   4      11.6765579320      0.4682845944
   5       3.5930506482      0.4457581734
 S 1 
   1       0.4024514736      1.0000000000
 S 1 
   1       0.1309018267      1.0000000000
 P 3 
   1       9.4680970621      0.0568883320
   2       2.0103545142      0.3129405934
   3       0.5477100471      0.7606501651
 P 1 
   1       0.1526861379      1.0000000000
 D 1 
   1       0.8000000000      1.0000000000
  end;

 # Basis set for element : O 
 NewGTO O 
 S 5 
   1    2266.1767785000     -0.0053893504
   2     340.8701019100     -0.0402347214
   3      77.3631351670     -0.1800818421
   4      21.4796449400     -0.4682885766
   5       6.6589433124     -0.4469261716
 S 1 
   1       0.8097597567      1.0000000000
 S 1 
   1       0.2553077223      1.0000000000
 P 3 
   1      17.7215043170      0.0626302488
   2       3.8635505440      0.3333113849
   3       1.0480920883      0.7414863830
 P 1 
   1       0.2764154441      1.0000000000
 D 1 
   1       1.2000000000      1.0000000000
  end;

---------------------------------
AUXILIARY/J BASIS SET INFORMATION
---------------------------------
There are 2 groups of distinct atoms

 Group   1 Type C   : 12s5p4d2f1g contracted to 6s4p3d1f1g pattern {711111/2111/211/2/1}
 Group   2 Type O   : 12s5p4d2f1g contracted to 6s4p3d1f1g pattern {711111/2111/211/2/1}

Atom   0C    basis set group =>   1
Atom   1O    basis set group =>   2
Atom   2O    basis set group =>   2

-------------------------------------
AUXILIARY/J BASIS SET IN INPUT FORMAT
-------------------------------------

 # Auxiliary/J basis set for element : C 
 NewAuxJGTO C 
 S 7 
   1    1861.0916331000      0.0134602335
   2     642.9939764000      0.0299160374
   3     235.1105725000      0.1008649584
   4      90.7028894000      0.2370970548
   5      36.7794552000      0.3924037254
   6      15.6046273000      0.3195862154
   7       6.8907294000      0.0530104441
 S 1 
   1       3.1478850000     -1.0000000000
 S 1 
   1       1.4777287000      1.0000000000
 S 1 
   1       0.7076466000      1.0000000000
 S 1 
   1       0.3430122000      1.0000000000
 S 1 
   1       0.1669453000      1.0000000000
 P 2 
   1      13.5472892000     -0.6769313712
   2       5.4669419000     -0.3779500978
 P 1 
   1       2.1751721000      1.0000000000
 P 1 
   1       0.8582194000      1.0000000000
 P 1 
   1       0.3376720000      1.0000000000
 D 2 
   1       5.9287253000     -0.3533329857
   2       1.9809209000     -0.7456525731
 D 1 
   1       0.8055417000     -1.0000000000
 D 1 
   1       0.3531244000     -1.0000000000
 F 2 
   1       1.6755626000      0.6311076882
   2       0.5997536000      0.4968166032
 G 1 
   1       1.0024600000     -1.0000000000
  end;

 # Auxiliary/J basis set for element : O 
 NewAuxJGTO O 
 S 7 
   1    2876.8216605000      0.0168151159
   2    1004.7443032000      0.0340137548
   3     369.7579954000      0.1194951309
   4     142.9442404000      0.2664627624
   5      57.8366425000      0.4202764046
   6      24.3864983000      0.2765077335
   7      10.6622662000      0.0057008815
 S 1 
   1       4.8070437000     -1.0000000000
 S 1 
   1       2.2210770000      1.0000000000
 S 1 
   1       1.0447795000      1.0000000000
 S 1 
   1       0.4968425000      1.0000000000
 S 1 
   1       0.2371384000      1.0000000000
 P 2 
   1      64.2613382000     -0.2731534179
   2      16.3006076000     -0.8168011598
 P 1 
   1       4.3550542000      1.0000000000
 P 1 
   1       1.2019554000      1.0000000000
 P 1 
   1       0.3354196000      1.0000000000
 D 2 
   1       9.2146611000     -0.4661230638
   2       2.8435251000     -0.6600908911
 D 1 
   1       0.9955759000     -1.0000000000
 D 1 
   1       0.3649441000     -1.0000000000
 F 2 
   1       2.6420115000      0.5931563945
   2       0.7345613000      0.5931563945
 G 1 
   1       1.3931000000     -1.0000000000
  end;


Checking for AutoStart:
The File: job.gbw exists
Trying to determine its content:
     ... Fine, the file contains calculation information
     ... Fine, the calculation information was read
     ... Fine, the file contains a basis set
     ... Fine, the basis set was read
     ... Fine, the file contains a geometry
     ... Fine, the geometry was read
     ... Fine, the file contains a set of orbitals
     ... Fine, the orbitals can be read
     => possible old guess file was deleted
     => GBW file was renamed to GES file
     => GES file is set as startup file
     => Guess is set to MORead
     ... now leaving AutoStart

------------------------------------------------------------------------------
                             ORCA STARTUP CALCULATIONS
                           -- RI-GTO INTEGRALS CHOSEN --
------------------------------------------------------------------------------
------------------------------------------------------------------------------
                   ___                                                        
                  /   \      - P O W E R E D   B Y -                         
                 /     \                                                     
                 |  |  |   _    _      __       _____    __    __             
                 |  |  |  | |  | |    /  \     |  _  \  |  |  /  |          
                  \  \/   | |  | |   /    \    | | | |  |  | /  /          
                 / \  \   | |__| |  /  /\  \   | |_| |  |  |/  /          
                |  |  |   |  __  | /  /__\  \  |    /   |      \           
                |  |  |   | |  | | |   __   |  |    \   |  |\   \          
                \     /   | |  | | |  |  |  |  | |\  \  |  | \   \       
                 \___/    |_|  |_| |__|  |__|  |_| \__\ |__|  \__/        
                                                                              
                      - O R C A' S   B I G   F R I E N D -                    
                                      &                                       
                       - I N T E G R A L  F E E D E R -                       
                                                                              
 v1 FN, 2020, v2 2021, v3 2022-2024                                           
------------------------------------------------------------------------------


----------------------
SHARK INTEGRAL PACKAGE
----------------------

Number of atoms                             ...      3
Number of basis functions                   ...     42
Number of shells                            ...     18
Maximum angular momentum                    ...      2
Integral batch strategy                     ... SHARK/LIBINT Hybrid
RI-J (if used) integral strategy            ... SPLIT-RIJ (Revised 2003 algorithm where possible)
Printlevel                                  ...      1
Contraction scheme used                     ... SEGMENTED contraction
Prescreening option                         ... SCHWARTZ
   Thresh                                   ... 2.500e-11
   Tcut                                     ... 2.500e-12
   Tpresel                                  ... 2.500e-12 
Coulomb Range Separation                    ... NOT USED
Exchange Range Separation                   ... NOT USED
Multipole approximations                    ... NOT USED
Finite Nucleus Model                        ... NOT USED
CABS basis                                  ... NOT available
Auxiliary Coulomb fitting basis             ... AVAILABLE
   # of basis functions in Aux-J            ...    147
   # of shells in Aux-J                     ...     45
   Maximum angular momentum in Aux-J        ...      4
Auxiliary J/K fitting basis                 ... NOT available
Auxiliary Correlation fitting basis         ... NOT available
Auxiliary 'external' fitting basis          ... NOT available

Checking pre-screening integrals            ... done (  0.0 sec) Dimension = 18
Check shell pair data                       ... done (  0.0 sec)
Shell pair information
Shell pair cut-off parameter TPreSel        ...   2.5e-12
Total number of shell pairs                 ...       171
Shell pairs after pre-screening             ...       171
Total number of primitive shell pairs       ...       705
Primitive shell pairs kept                  ...       655
          la=0 lb=0:     45 shell pairs
          la=1 lb=0:     54 shell pairs
          la=1 lb=1:     21 shell pairs
          la=2 lb=0:     27 shell pairs
          la=2 lb=1:     18 shell pairs
          la=2 lb=2:      6 shell pairs

Calculating one electron integrals          ... done (  0.0 sec)
Calculating RI/J V-Matrix + Cholesky decomp.... done (  0.0 sec)
Calculating Nuclear repulsion               ... done (  0.0 sec) ENN=    110.116399347984 Eh

Diagonalization of the overlap matrix:
Smallest eigenvalue                        ... 1.060e-03
Time for diagonalization                   ...    0.000 sec
Threshold for overlap eigenvalues          ... 1.000e-07
Number of eigenvalues below threshold      ... 0
Time for construction of square roots      ...    0.000 sec
Total time needed                          ...    0.000 sec

-------------------
DFT GRID GENERATION
-------------------

General Integration Accuracy     IntAcc      ... 4.388
Radial Grid Type                 RadialGrid  ... OptM3 with GC (2021)
Angular Grid (max. ang.)         AngularGrid ... 4 (Lebedev-302)
Angular grid pruning method      GridPruning ... 4 (adaptive)
Weight generation scheme         WeightScheme... mBecke (2022)
Basis function cutoff            BFCut       ... 1.0000e-11
Integration weight cutoff        WCut        ... 1.0000e-14
Partially contracted basis set               ... off
Rotationally invariant grid construction     ... off
Angular grids for H and He will be reduced by one unit

Total number of grid points                  ...    18243
Total number of batches                      ...      287
Average number of points per batch           ...       63
Average number of grid points per atom       ...     6081

--------------------
COSX GRID GENERATION
--------------------

GRIDX 1
-------
General Integration Accuracy     IntAcc      ... 3.816
Radial Grid Type                 RadialGrid  ... OptM3 with GC (2021)
Angular Grid (max. ang.)         AngularGrid ... 1 (Lebedev-50)
Angular grid pruning method      GridPruning ... 4 (adaptive)
Weight generation scheme         WeightScheme... mBecke (2022)
Basis function cutoff            BFCut       ... 1.0000e-11
Integration weight cutoff        WCut        ... 1.0000e-14
Partially contracted basis set               ... on
Rotationally invariant grid construction     ... off
Angular grids for H and He will be reduced by one unit

Total number of grid points                  ...     2280
Total number of batches                      ...       19
Average number of points per batch           ...      120
Average number of grid points per atom       ...      760
UseSFitting                                  ... on

GRIDX 2
-------
General Integration Accuracy     IntAcc      ... 4.020
Radial Grid Type                 RadialGrid  ... OptM3 with GC (2021)
Angular Grid (max. ang.)         AngularGrid ... 2 (Lebedev-110)
Angular grid pruning method      GridPruning ... 4 (adaptive)
Weight generation scheme         WeightScheme... mBecke (2022)
Basis function cutoff            BFCut       ... 1.0000e-11
Integration weight cutoff        WCut        ... 1.0000e-14
Partially contracted basis set               ... on
Rotationally invariant grid construction     ... off
Angular grids for H and He will be reduced by one unit

Total number of grid points                  ...     5600
Total number of batches                      ...       45
Average number of points per batch           ...      124
Average number of grid points per atom       ...     1867
UseSFitting                                  ... on

GRIDX 3
-------
General Integration Accuracy     IntAcc      ... 4.338
Radial Grid Type                 RadialGrid  ... OptM3 with GC (2021)
Angular Grid (max. ang.)         AngularGrid ... 3 (Lebedev-194)
Angular grid pruning method      GridPruning ... 4 (adaptive)
Weight generation scheme         WeightScheme... mBecke (2022)
Basis function cutoff            BFCut       ... 1.0000e-11
Integration weight cutoff        WCut        ... 1.0000e-14
Partially contracted basis set               ... on
Rotationally invariant grid construction     ... off
Angular grids for H and He will be reduced by one unit

Total number of grid points                  ...    12496
Total number of batches                      ...       99
Average number of points per batch           ...      126
Average number of grid points per atom       ...     4165
UseSFitting                                  ... on
Initializing property integral containers    ... done (  0.0 sec)

SHARK setup successfully completed in   0.1 seconds

Maximum memory used throughout the entire STARTUP-calculation: 9.4 MB
-------------------------------------------------------------------------------
                                 ORCA GUESS
                   Start orbitals & Density for SCF / CASSCF
-------------------------------------------------------------------------------

------------
SCF SETTINGS
------------
Hamiltonian:
 Density Functional     Method          .... DFT(GTOs)
 Exchange Functional    Exchange        .... B88
   X-Alpha parameter    XAlpha          ....  0.666667
   Becke's b parameter  XBeta           ....  0.004200
 Correlation Functional Correlation     .... LYP
 LDA part of GGA corr.  LDAOpt          .... VWN-5
 Gradients option       PostSCFGGA      .... off
 Hybrid DFT is turned on
   Fraction HF Exchange ScalHFX         ....  0.200000
   Scaling of DF-GGA-X  ScalDFX         ....  0.720000
   Scaling of DF-GGA-C  ScalDFC         ....  0.810000
   Scaling of DF-LDA-C  ScalLDAC        ....  1.000000
   Perturbative correction              ....  0.000000
   NL short-range parameter             ....  4.800000
 RI-approximation to the Coulomb term is turned on
   Number of AuxJ basis functions       .... 147
   RIJ-COSX (HFX calculated with COS-X)).... on


General Settings:
 Integral files         IntName         .... job
 Hartree-Fock type      HFTyp           .... RHF
 Total Charge           Charge          ....    0
 Multiplicity           Mult            ....    1
 Number of Electrons    NEL             ....   22
 Basis Dimension        Dim             ....   42
 Nuclear Repulsion      ENuc            ....    110.1163993480 Eh

Convergence Acceleration:
 AO-DIIS                CNVDIIS         .... on
   Start iteration      DIISMaxIt       ....    12
   Startup error        DIISStart       ....  0.200000
   # of expansion vecs  DIISMaxEq       ....     5
   Bias factor          DIISBfac        ....   1.050
   Max. coefficient     DIISMaxC        ....  10.000
 MO-DIIS                CNVKDIIS        .... off
 Trust-Rad. Augm. Hess. CNVTRAH         .... auto
   Auto Start mean grad. ratio tolernc. ....  1.125000
   Auto Start start iteration           ....     1
   Auto Start num. interpolation iter.  ....    10
   Max. Number of Micro iterations      ....    24
   Max. Number of Macro iterations      .... Maxiter - #DIIS iter
   Number of Davidson start vectors     ....     2
   Converg. threshold    (grad. norm)   ....   1.000e-05
   Grad. Scal. Fac. for Micro threshold ....   0.100
   Minimum threshold for Micro iter.    ....   1.000e-02
   NR start threshold (gradient norm)   ....   1.000e-04
   Initial trust radius                 ....   0.400
   Minimum AH scaling param. (alpha)    ....   1.000
   Maximum AH scaling param. (alpha)    .... 1000.000
   Quad. conv. algorithm                .... NR
   White noise on init. David. guess    .... on
   Maximum white noise                  ....   0.010
   Pseudo random numbers                .... off
   Inactive MOs                         .... canonical
   Orbital update algorithm             .... Taylor
   Preconditioner                       .... Diag
   Full preconditioner red. dimension   ....   250
 SOSCF                  CNVSOSCF        .... on
   Start iteration      SOSCFMaxIt      ....   150
   Startup grad/error   SOSCFStart      ....  0.003300
   Hessian update       SOSCFHessUp     .... L-BFGS
 Level Shifting         CNVShift        .... on
   Level shift para.    LevelShift      ....    0.2500
   Turn off err/grad.   ShiftErr        ....    0.0010
 Zerner damping         CNVZerner       .... off
 Static damping         CNVDamp         .... on
   Fraction old density DampFac         ....    0.7000
   Max. Damping (<1)    DampMax         ....    0.9800
   Min. Damping (>=0)   DampMin         ....    0.0000
   Turn off err/grad.   DampErr         ....    0.1000

SCF Procedure:
 Maximum # iterations   MaxIter         ....   125
 SCF integral mode      SCFMode         .... Direct
   Integral package                     .... SHARK and LIBINT hybrid scheme
 Reset frequency        DirectResetFreq ....    20
 Integral Threshold     Thresh          ....  2.500e-11 Eh
 Primitive CutOff       TCut            ....  2.500e-12 Eh

Convergence Tolerance:
 Convergence Check Mode ConvCheckMode   .... Total+1el-Energy
 Convergence forced     ConvForced      .... 0
 Energy Change          TolE            ....  1.000e-08 Eh
 1-El. energy change                    ....  1.000e-05 Eh
 Orbital Gradient       TolG            ....  1.000e-05
 Orbital Rotation angle TolX            ....  1.000e-05
 DIIS Error             TolErr          ....  5.000e-07

---------------------
INITIAL GUESS: MOREAD
---------------------
Guess MOs are being read from file: job.ges
Input Geometry matches current geometry (good)
Input basis set matches current basis set (good)
Occupation numbers will be reassigned to an Aufbau configuration
MOs were renormalized
MOs were reorthogonalized (Cholesky)
                      ------------------
                      INITIAL GUESS DONE (   0.0 sec)
                      ------------------
----------------------
INITIAL GUESS ORBITALS
----------------------
                      0         1         2         3         4         5   
                 -19.25222 -19.16220 -10.74858  -1.28160  -1.18741  -0.97442
                   2.00000   2.00000   2.00000   2.00000   2.00000   2.00000
                  --------  --------  --------  --------  --------  --------
  0C   1s         0.003165 -0.001696 -0.971503  0.068851  0.369621 -0.000000
  0C   2s        -0.027436  0.027803  0.095957  0.145745 -0.008906 -0.000000
  0C   3s         0.001092 -0.003670  0.008287 -0.012371 -0.053777 -0.000000
  0C   1pz        0.000000 -0.000000 -0.000000 -0.000000 -0.000000 -0.119507
  0C   1px       -0.001862 -0.007070 -0.009673  0.799069 -0.179929 -0.000000
  0C   1py        0.000000  0.000000  0.000000  0.000000  0.000000  0.503963
  0C   2pz       -0.000000  0.000000  0.000000 -0.000000 -0.000000 -0.029257
  0C   2px        0.012691  0.013176 -0.000032  0.066869 -0.015380  0.000000
  0C   2py       -0.000000 -0.000000  0.000000  0.000000  0.000000  0.123377
  0C   1dz2      -0.003844  0.001927 -0.006840 -0.029433 -0.043328  0.000000
  0C   1dxz      -0.000000 -0.000000  0.000000 -0.000000  0.000000  0.002044
  0C   1dyz       0.000000 -0.000000  0.000000 -0.000000 -0.000000  0.000000
  0C   1dx2y2     0.006659 -0.003337  0.011847  0.050980  0.075047 -0.000000
  0C   1dxy      -0.000000  0.000000  0.000000 -0.000000  0.000000 -0.008621
  1O   1s        -0.985732 -0.001614 -0.034681  0.193142 -0.256513  0.000000
  1O   2s         0.046272  0.006719 -0.049811 -0.027710 -0.529561  0.000000
  1O   3s        -0.019670 -0.025893 -0.022555 -0.277142 -0.112076  0.000000
  1O   1pz        0.000000  0.000000 -0.000000 -0.000000 -0.000000 -0.093223
  1O   1px       -0.013956 -0.000921  0.035241 -0.208924  0.185633  0.000000
  1O   1py        0.000000 -0.000000 -0.000000  0.000000  0.000000  0.393121
  1O   2pz       -0.000000  0.000000 -0.000000 -0.000000 -0.000000  0.005543
  1O   2px       -0.004360  0.005929  0.009607  0.142999  0.005753 -0.000000
  1O   2py        0.000000 -0.000000 -0.000000 -0.000000 -0.000000 -0.023376
  1O   1dz2      -0.002803 -0.001025  0.004026 -0.031269 -0.005161  0.000000
  1O   1dxz      -0.000000 -0.000000  0.000000  0.000000  0.000000  0.011245
  1O   1dyz      -0.000000  0.000000 -0.000000 -0.000000 -0.000000 -0.000000
  1O   1dx2y2     0.004854  0.001775 -0.006972  0.054160  0.008938 -0.000000
  1O   1dxy      -0.000000  0.000000  0.000000 -0.000000 -0.000000 -0.047420
  2O   1s        -0.001660  0.986141 -0.024866 -0.271354 -0.141528  0.000000
  2O   2s        -0.008024 -0.052521 -0.054749 -0.337415 -0.433739  0.000000
  2O   3s         0.029086  0.023361 -0.029250  0.172729 -0.198221  0.000000
  2O   1pz       -0.000000 -0.000000 -0.000000 -0.000000 -0.000000 -0.075245
  2O   1px       -0.000553 -0.013111 -0.033794 -0.303665 -0.103522  0.000000
  2O   1py       -0.000000 -0.000000 -0.000000 -0.000000  0.000000  0.317308
  2O   2pz        0.000000 -0.000000 -0.000000  0.000000  0.000000  0.008146
  2O   2px        0.007677 -0.003649 -0.014626  0.103586 -0.069232  0.000000
  2O   2py        0.000000  0.000000 -0.000000 -0.000000 -0.000000 -0.034353
  2O   1dz2       0.000880  0.002544  0.003425  0.028096 -0.011995  0.000000
  2O   1dxz      -0.000000 -0.000000 -0.000000 -0.000000  0.000000 -0.007642
  2O   1dyz      -0.000000  0.000000 -0.000000  0.000000 -0.000000 -0.000000
  2O   1dx2y2    -0.001523 -0.004407 -0.005933 -0.048664  0.020775 -0.000000
  2O   1dxy      -0.000000 -0.000000 -0.000000 -0.000000  0.000000  0.032225
                      6         7         8         9        10        11   
                  -0.97442  -0.51867  -0.37162  -0.37162  -0.35502   0.15246
                   2.00000   2.00000   2.00000   2.00000   2.00000   0.00000
                  --------  --------  --------  --------  --------  --------
  0C   1s         0.000000  0.018513 -0.000000  0.000000  0.286824  0.059580
  0C   2s         0.000000 -0.067599 -0.000000  0.000000  0.712149  0.711802
  0C   3s         0.000000 -0.002951 -0.000000  0.000000  0.244926  3.226615
  0C   1pz       -0.503963  0.000000  0.003658 -0.019692 -0.000000  0.000000
  0C   1px       -0.000000 -0.397049 -0.000000 -0.000000 -0.030119 -0.008343
  0C   1py       -0.119507 -0.000000 -0.019692 -0.003658 -0.000000 -0.000000
  0C   2pz       -0.123377  0.000000  0.002695 -0.014506 -0.000000  0.000000
  0C   2px        0.000000  0.117105  0.000000  0.000000  0.004376  0.056492
  0C   2py       -0.029257 -0.000000 -0.014506 -0.002695 -0.000000  0.000000
  0C   1dz2      -0.000000  0.012255  0.000000 -0.000000 -0.081254  0.043460
  0C   1dxz       0.008621  0.000000 -0.002644  0.014233 -0.000000  0.000000
  0C   1dyz       0.000000 -0.000000 -0.000000  0.000000  0.000000 -0.000000
  0C   1dx2y2     0.000000 -0.021227 -0.000000  0.000000  0.140736 -0.075275
  0C   1dxy       0.002044  0.000000  0.014233  0.002644  0.000000  0.000000
  1O   1s        -0.000000  0.070864 -0.000000  0.000000  0.051069 -0.089823
  1O   2s        -0.000000  0.330056  0.000000 -0.000000 -0.143220 -0.037802
  1O   3s        -0.000000  0.356836  0.000000  0.000000 -0.079660 -2.002970
  1O   1pz       -0.393121 -0.000000 -0.098676  0.531143 -0.000000  0.000000
  1O   1px       -0.000000  0.426765 -0.000000  0.000000  0.516412 -0.037121
  1O   1py       -0.093223 -0.000000  0.531143  0.098676  0.000000 -0.000000
  1O   2pz        0.023376 -0.000000 -0.060330  0.324738 -0.000000 -0.000000
  1O   2px        0.000000  0.068089 -0.000000  0.000000  0.405844  0.263252
  1O   2py        0.005543 -0.000000  0.324738  0.060330  0.000000 -0.000000
  1O   1dz2      -0.000000  0.023876  0.000000  0.000000 -0.004957  0.009992
  1O   1dxz       0.047420  0.000000  0.009896 -0.053268  0.000000 -0.000000
  1O   1dyz      -0.000000 -0.000000 -0.000000  0.000000  0.000000 -0.000000
  1O   1dx2y2     0.000000 -0.041355 -0.000000 -0.000000  0.008586 -0.017307
  1O   1dxy       0.011245  0.000000 -0.053268 -0.009896 -0.000000  0.000000
  2O   1s        -0.000000 -0.091927  0.000000  0.000000  0.060231 -0.084872
  2O   2s        -0.000000 -0.270636  0.000000 -0.000000 -0.138123 -0.035767
  2O   3s        -0.000000 -0.374463  0.000000 -0.000000 -0.054162 -1.806415
  2O   1pz       -0.317308  0.000000  0.104957 -0.564950  0.000000 -0.000000
  2O   1px        0.000000  0.431079  0.000000 -0.000000 -0.495015  0.035187
  2O   1py       -0.075245  0.000000 -0.564950 -0.104957 -0.000000 -0.000000
  2O   2pz        0.034353  0.000000  0.064337 -0.346306  0.000000 -0.000000
  2O   2px       -0.000000  0.074559  0.000000 -0.000000 -0.394446 -0.250457
  2O   2py        0.008146  0.000000 -0.346306 -0.064337 -0.000000 -0.000000
  2O   1dz2      -0.000000 -0.025375  0.000000 -0.000000 -0.002480  0.011252
  2O   1dxz      -0.032225  0.000000  0.010512 -0.056585  0.000000 -0.000000
  2O   1dyz      -0.000000  0.000000  0.000000 -0.000000  0.000000 -0.000000
  2O   1dx2y2     0.000000  0.043950  0.000000  0.000000  0.004295 -0.019489
  2O   1dxy      -0.007642  0.000000 -0.056585 -0.010512 -0.000000 -0.000000
                     12        13        14        15        16        17   
                   0.22582   0.22582   0.31585   0.72987   0.79346   0.79346
                   0.00000   0.00000   0.00000   0.00000   0.00000   0.00000
                  --------  --------  --------  --------  --------  --------
  0C   1s         0.000000 -0.000000 -0.009825 -0.252541 -0.000000  0.000000
  0C   2s         0.000000 -0.000000 -0.048801  4.846688  0.000002 -0.000000
  0C   3s        -0.000000  0.000000 -0.113404  1.679385  0.000000 -0.000000
  0C   1pz        0.116719  0.200665 -0.000000 -0.000000  0.044460 -0.925049
  0C   1px        0.000000 -0.000000  0.099651  0.048893  0.000000 -0.000000
  0C   1py       -0.200665  0.116719  0.000000 -0.000000  0.925049  0.044460
  0C   2pz       -0.852008 -1.464779  0.000000 -0.000000  0.062960 -1.309964
  0C   2px        0.000000 -0.000000  3.241587 -0.068787 -0.000000  0.000000
  0C   2py        1.464779 -0.852008 -0.000000 -0.000001  1.309964  0.062960
  0C   1dz2      -0.000000  0.000000 -0.001280 -0.050416 -0.000000 -0.000000
  0C   1dxz      -0.002410 -0.004143  0.000000 -0.000000  0.011594 -0.241230
  0C   1dyz      -0.000000 -0.000000  0.000000  0.000000  0.000000 -0.000000
  0C   1dx2y2     0.000000 -0.000000  0.002218  0.087323  0.000000 -0.000000
  0C   1dxy       0.004143 -0.002410  0.000000 -0.000000  0.241230  0.011594
  1O   1s         0.000000 -0.000000 -0.058642  0.022571 -0.000000 -0.000000
  1O   2s        -0.000000  0.000000 -0.001403 -0.277456 -0.000000  0.000000
  1O   3s         0.000000 -0.000000 -2.781271 -2.829385 -0.000002  0.000000
  1O   1pz        0.060394  0.103829 -0.000000  0.000000  0.002815 -0.058563
  1O   1px        0.000000 -0.000000 -0.163317 -0.296455 -0.000000  0.000000
  1O   1py       -0.103829  0.060394 -0.000000  0.000000  0.058563  0.002815
  1O   2pz        0.217842  0.374516 -0.000000  0.000000 -0.090575  1.884543
  1O   2px        0.000000 -0.000000 -0.068644  1.830995  0.000001 -0.000000
  1O   2py       -0.374516  0.217842 -0.000000  0.000000 -1.884543 -0.090575
  1O   1dz2      -0.000000  0.000000  0.001239  0.028832  0.000000 -0.000000
  1O   1dxz      -0.016321 -0.028059  0.000000  0.000000 -0.001383  0.028776
  1O   1dyz       0.000000  0.000000  0.000000  0.000000  0.000000 -0.000000
  1O   1dx2y2     0.000000 -0.000000 -0.002146 -0.049938 -0.000000  0.000000
  1O   1dxy       0.028059 -0.016321  0.000000  0.000000 -0.028776 -0.001383
  2O   1s         0.000000 -0.000000  0.066175  0.013571  0.000000 -0.000000
  2O   2s        -0.000000  0.000000 -0.000254 -0.213837 -0.000000  0.000000
  2O   3s         0.000000 -0.000000  2.965015 -2.455979 -0.000000  0.000000
  2O   1pz        0.061319  0.105419  0.000000  0.000000 -0.017030  0.354341
  2O   1px       -0.000000  0.000000 -0.143811  0.309322  0.000000 -0.000000
  2O   1py       -0.105419  0.061319  0.000000  0.000000 -0.354341 -0.017030
  2O   2pz        0.226366  0.389169  0.000000  0.000000 -0.021800  0.453569
  2O   2px       -0.000000  0.000000  0.027450 -1.623205 -0.000000  0.000000
  2O   2py       -0.389169  0.226366  0.000000  0.000000 -0.453569 -0.021800
  2O   1dz2      -0.000000  0.000000 -0.001966  0.023935  0.000000 -0.000000
  2O   1dxz       0.014253  0.024503  0.000000 -0.000000  0.004291 -0.089288
  2O   1dyz       0.000000  0.000000 -0.000000  0.000000  0.000000 -0.000000
  2O   1dx2y2     0.000000 -0.000000  0.003405 -0.041457 -0.000000  0.000000
  2O   1dxy      -0.024503  0.014253  0.000000 -0.000000  0.089288  0.004291
                     18        19        20        21        22        23   
                   0.81601   0.81601   0.84088   1.22356   1.34076   1.34076
                   0.00000   0.00000   0.00000   0.00000   0.00000   0.00000
                  --------  --------  --------  --------  --------  --------
  0C   1s        -0.000000  0.000000  0.000527 -0.046654  0.000000 -0.000000
  0C   2s         0.000001 -0.000001 -0.030692  0.249811 -0.000000  0.000000
  0C   3s         0.000000 -0.000000 -0.003762  3.223823 -0.000000  0.000000
  0C   1pz       -0.389013 -0.557294  0.000000 -0.000000  0.178009  0.242122
  0C   1px       -0.000000  0.000000  0.565417 -0.039080  0.000000 -0.000000
  0C   1py        0.557294 -0.389013  0.000000 -0.000000 -0.242122  0.178009
  0C   2pz       -0.511619 -0.732937  0.000000  0.000000 -0.915884 -1.245756
  0C   2px        0.000000 -0.000000 -0.944921  0.051530  0.000000 -0.000000
  0C   2py        0.732937 -0.511619  0.000000  0.000000  1.245756 -0.915884
  0C   1dz2      -0.000000  0.000000  0.010232  0.270618  0.000000 -0.000000
  0C   1dxz       0.207377  0.297084 -0.000000 -0.000000 -0.005925 -0.008058
  0C   1dyz      -0.000000 -0.000000 -0.000000  0.000000  0.000000  0.000000
  0C   1dx2y2     0.000000 -0.000000 -0.017723 -0.468725  0.000000 -0.000000
  0C   1dxy      -0.297084  0.207377 -0.000000  0.000000  0.008058 -0.005925
  1O   1s        -0.000000  0.000000  0.013850  0.214476  0.000000  0.000000
  1O   2s        -0.000000  0.000000  0.078163  2.168453 -0.000000  0.000000
  1O   3s         0.000001 -0.000001 -2.665321 -3.513358  0.000000 -0.000000
  1O   1pz        0.224873  0.322149 -0.000000  0.000000 -0.466270 -0.634206
  1O   1px        0.000000 -0.000000 -0.125404  0.134572 -0.000000  0.000000
  1O   1py       -0.322149  0.224873 -0.000000  0.000000  0.634206 -0.466270
  1O   2pz       -0.045201 -0.064754  0.000000 -0.000000  0.728669  0.991112
  1O   2px       -0.000001  0.000001  2.731698  0.168333 -0.000000  0.000000
  1O   2py        0.064754 -0.045201  0.000000 -0.000000 -0.991112  0.728669
  1O   1dz2      -0.000000  0.000000  0.008009  0.018044  0.000000 -0.000000
  1O   1dxz       0.052599  0.075352 -0.000000  0.000000 -0.073547 -0.100036
  1O   1dyz      -0.000000 -0.000000 -0.000000  0.000000  0.000000  0.000000
  1O   1dx2y2    -0.000000  0.000000 -0.013872 -0.031253  0.000000 -0.000000
  1O   1dxy      -0.075352  0.052599 -0.000000  0.000000  0.100036 -0.073547
  2O   1s        -0.000000  0.000000 -0.005402  0.210495 -0.000000  0.000000
  2O   2s        -0.000000  0.000000 -0.033704  2.057027 -0.000000  0.000000
  2O   3s        -0.000002  0.000001  2.659457 -3.224506  0.000000 -0.000000
  2O   1pz       -0.106602 -0.152716  0.000000  0.000000 -0.478433 -0.650749
  2O   1px        0.000000 -0.000000 -0.112591 -0.102004  0.000000 -0.000000
  2O   1py        0.152716 -0.106602  0.000000  0.000000  0.650749 -0.478433
  2O   2pz        0.993696  1.423552 -0.000000 -0.000000  0.719558  0.978720
  2O   2px       -0.000001  0.000001  2.741109 -0.162799  0.000000 -0.000000
  2O   2py       -1.423552  0.993696 -0.000001 -0.000000 -0.978720  0.719558
  2O   1dz2       0.000000 -0.000000 -0.007807  0.014758  0.000000 -0.000000
  2O   1dxz       0.000545  0.000781 -0.000000 -0.000000  0.069128  0.094026
  2O   1dyz       0.000000  0.000000  0.000000  0.000000  0.000000  0.000000
  2O   1dx2y2    -0.000000  0.000000  0.013522 -0.025561  0.000000 -0.000000
  2O   1dxy      -0.000781  0.000545 -0.000000  0.000000 -0.094026  0.069128
                     24        25        26        27        28        29   
                   1.36423   1.36423   1.59261   2.03022   2.56716   2.56717
                   0.00000   0.00000   0.00000   0.00000   0.00000   0.00000
                  --------  --------  --------  --------  --------  --------
  0C   1s        -0.000000 -0.000000 -0.005565  0.032835  0.000000 -0.000000
  0C   2s         0.000000  0.000000  0.008314 -6.737094  0.000000 -0.000000
  0C   3s         0.000000  0.000000  0.062375 -1.670393  0.000000 -0.000000
  0C   1pz        0.000000  0.000000  0.000000  0.000000  0.000000 -0.000000
  0C   1px       -0.000000 -0.000000 -0.089199  0.033898  0.000000 -0.000000
  0C   1py        0.000000 -0.000000 -0.000000  0.000000 -0.000000 -0.000000
  0C   2pz       -0.000001 -0.000000 -0.000000 -0.000000  0.000000 -0.000000
  0C   2px        0.000000  0.000000 -3.287198  0.056667  0.000000 -0.000000
  0C   2py       -0.000000  0.000001  0.000000 -0.000000 -0.000000 -0.000000
  0C   1dz2       0.000000 -0.741870  0.000562 -0.316471 -0.018408  0.000000
  0C   1dxz      -0.000000 -0.000000 -0.000000 -0.000000  0.000000 -0.000000
  0C   1dyz      -0.856642 -0.000000 -0.000000 -0.000000  0.000000  0.021253
  0C   1dx2y2     0.000000 -0.428319 -0.000973  0.548144 -0.010628 -0.000000
  0C   1dxy      -0.000000  0.000000 -0.000000 -0.000000 -0.000000 -0.000000
  1O   1s         0.000000  0.000000 -0.206977  0.167484  0.000000  0.000000
  1O   2s         0.000000  0.000000 -1.509343  0.565941 -0.000000  0.000000
  1O   3s        -0.000000 -0.000000  5.165838  3.616746 -0.000000  0.000000
  1O   1pz       -0.000000 -0.000000 -0.000000 -0.000000 -0.000000  0.000000
  1O   1px        0.000000  0.000000 -0.401185 -0.772335  0.000000 -0.000000
  1O   1py       -0.000000  0.000000  0.000000 -0.000000  0.000000  0.000000
  1O   2pz        0.000001  0.000000  0.000000  0.000000 -0.000000  0.000000
  1O   2px        0.000000  0.000000 -0.016118 -1.430104  0.000000 -0.000000
  1O   2py        0.000000 -0.000001  0.000000  0.000000  0.000000  0.000000
  1O   1dz2       0.000000 -0.117894  0.009781 -0.032647  0.622136 -0.000000
  1O   1dxz      -0.000000 -0.000000 -0.000000 -0.000000 -0.000000  0.000000
  1O   1dyz      -0.136127 -0.000000  0.000000  0.000000 -0.000000 -0.718379
  1O   1dx2y2     0.000000 -0.068066 -0.016941  0.056546  0.359190 -0.000000
  1O   1dxy      -0.000000  0.000000 -0.000000 -0.000000  0.000000  0.000000
  2O   1s         0.000000  0.000000  0.221000  0.159304 -0.000000  0.000000
  2O   2s         0.000000  0.000000  1.612417  0.504478 -0.000000  0.000000
  2O   3s        -0.000000 -0.000000 -5.320412  3.185480  0.000000 -0.000000
  2O   1pz       -0.000000 -0.000000 -0.000000 -0.000000  0.000000 -0.000000
  2O   1px       -0.000000 -0.000000 -0.364895  0.778902 -0.000000  0.000000
  2O   1py       -0.000000  0.000000 -0.000000 -0.000000 -0.000000 -0.000000
  2O   2pz        0.000001  0.000000 -0.000000  0.000000 -0.000000 -0.000000
  2O   2px       -0.000000 -0.000000 -0.154427  1.154257 -0.000000  0.000000
  2O   2py        0.000000 -0.000001 -0.000000  0.000000 -0.000000  0.000000
  2O   1dz2       0.000000 -0.118534 -0.013258 -0.010119 -0.627522  0.000000
  2O   1dxz       0.000000  0.000000  0.000000  0.000000 -0.000000  0.000000
  2O   1dyz      -0.136868 -0.000000 -0.000000 -0.000000  0.000000  0.724601
  2O   1dx2y2     0.000000 -0.068436  0.022964  0.017526 -0.362300  0.000000
  2O   1dxy       0.000000 -0.000000 -0.000000  0.000000  0.000000  0.000000
                     30        31        32        33        34        35   
                   2.96061   2.96061   3.24293   3.35001   3.56454   3.56454
                   0.00000   0.00000   0.00000   0.00000   0.00000   0.00000
                  --------  --------  --------  --------  --------  --------
  0C   1s        -0.000000  0.000000  0.341570  0.282838 -0.000000  0.000000
  0C   2s        -0.000000  0.000000  7.896966  5.060391  0.000000 -0.000000
  0C   3s        -0.000000  0.000000  1.082906  0.626522 -0.000000  0.000000
  0C   1pz       -0.000356 -0.002880 -0.000000 -0.000000 -0.000000  0.000000
  0C   1px       -0.000000  0.000000  0.122179 -0.062909  0.000000 -0.000000
  0C   1py        0.002880 -0.000356 -0.000000 -0.000000  0.000000  0.000000
  0C   2pz       -0.001489 -0.012045  0.000000  0.000000 -0.000000  0.000000
  0C   2px        0.000000 -0.000000 -0.084574  0.039001  0.000000 -0.000000
  0C   2py        0.012045 -0.001489  0.000000  0.000000  0.000000  0.000000
  0C   1dz2      -0.000000  0.000000 -0.593891 -0.422768 -0.910268 -0.000000
  0C   1dxz       0.046757  0.378150 -0.000000  0.000000  0.000000 -0.000000
  0C   1dyz       0.000000  0.000000 -0.000000  0.000000 -0.000000  1.051084
  0C   1dx2y2     0.000000 -0.000000  1.028649  0.732256 -0.525544 -0.000000
  0C   1dxy      -0.378150  0.046757 -0.000000  0.000000 -0.000000 -0.000000
  1O   1s         0.000000 -0.000000 -0.007296  0.008539 -0.000000  0.000000
  1O   2s         0.000000 -0.000000 -2.547508 -1.189044 -0.000000  0.000000
  1O   3s        -0.000000  0.000000 -1.394502 -3.667391 -0.000000  0.000000
  1O   1pz       -0.040662 -0.328857 -0.000000 -0.000000 -0.000000  0.000000
  1O   1px       -0.000000  0.000000  0.532973  0.414960  0.000000 -0.000000
  1O   1py        0.328857 -0.040662 -0.000000 -0.000000  0.000000  0.000000
  1O   2pz        0.029843  0.241358 -0.000000 -0.000000  0.000000 -0.000000
  1O   2px        0.000000 -0.000000  0.417128  2.049826  0.000000 -0.000000
  1O   2py       -0.241358  0.029843 -0.000000 -0.000000 -0.000000 -0.000000
  1O   1dz2      -0.000000 -0.000000  0.010427  0.614101  0.824804  0.000000
  1O   1dxz      -0.085310 -0.689952  0.000000  0.000000 -0.000000  0.000000
  1O   1dyz      -0.000000 -0.000000  0.000000 -0.000000  0.000000 -0.952403
  1O   1dx2y2    -0.000000  0.000000 -0.018061 -1.063654  0.476201  0.000000
  1O   1dxy       0.689952 -0.085310  0.000000  0.000000  0.000000  0.000000
  2O   1s        -0.000000  0.000000  0.012263 -0.002313 -0.000000  0.000000
  2O   2s        -0.000000  0.000000 -1.784040 -1.774483 -0.000000  0.000000
  2O   3s         0.000000 -0.000000 -3.974723  0.397236  0.000000 -0.000000
  2O   1pz        0.038863  0.314310 -0.000000  0.000000 -0.000000  0.000000
  2O   1px       -0.000000  0.000000 -0.612297 -0.333291 -0.000000  0.000000
  2O   1py       -0.314310  0.038863 -0.000000  0.000000  0.000000  0.000000
  2O   2pz       -0.027104 -0.219202 -0.000000 -0.000000  0.000000 -0.000000
  2O   2px        0.000000 -0.000000 -2.078758  0.489513 -0.000000  0.000000
  2O   2py        0.219202 -0.027104 -0.000000 -0.000000 -0.000000 -0.000000
  2O   1dz2       0.000000  0.000000  0.571558 -0.208801  0.786786  0.000000
  2O   1dxz      -0.084307 -0.681842 -0.000000 -0.000000  0.000000 -0.000000
  2O   1dyz       0.000000  0.000000  0.000000 -0.000000  0.000000 -0.908502
  2O   1dx2y2     0.000000 -0.000000 -0.989968  0.361654  0.454251  0.000000
  2O   1dxy       0.681842 -0.084307 -0.000000 -0.000000 -0.000000 -0.000000
                     36        37        38        39        40        41   
                   4.15350   4.15350   4.49409   4.49409   6.37250   7.15180
                   0.00000   0.00000   0.00000   0.00000   0.00000   0.00000
                  --------  --------  --------  --------  --------  --------
  0C   1s        -0.000000  0.000000 -0.000000 -0.000000 -0.624303 -0.080869
  0C   2s         0.000000 -0.000000  0.000000  0.000000 20.600495  5.906989
  0C   3s         0.000000  0.000000 -0.000000 -0.000000  0.393227  0.234682
  0C   1pz       -0.005413  0.105581  0.474039 -2.483428 -0.000000 -0.000000
  0C   1px       -0.000000 -0.000000  0.000000  0.000000 -0.570099  5.686832
  0C   1py       -0.105581 -0.005413  2.483428  0.474039 -0.000000 -0.000000
  0C   2pz       -0.001134  0.022123  0.145124 -0.760286  0.000000  0.000000
  0C   2px       -0.000000  0.000000  0.000000  0.000000  0.035146  0.063047
  0C   2py       -0.022123 -0.001134  0.760286  0.145124  0.000000  0.000000
  0C   1dz2      -0.000000  0.000000 -0.000000  0.000000 -3.149752 -0.737825
  0C   1dxz      -0.137934  2.690304  0.009008 -0.047192  0.000000 -0.000000
  0C   1dyz      -0.000000  0.000000 -0.000000  0.000000  0.000000  0.000000
  0C   1dx2y2     0.000000 -0.000000  0.000000  0.000000  5.455530  1.277951
  0C   1dxy      -2.690304 -0.137934  0.047192  0.009008  0.000000 -0.000000
  1O   1s         0.000000 -0.000000  0.000000  0.000000  0.183804 -0.124568
  1O   2s        -0.000000  0.000000 -0.000000 -0.000000 -9.223754 -6.331420
  1O   3s         0.000000 -0.000000  0.000000 -0.000000 -3.547207 -3.566584
  1O   1pz        0.080099 -1.562265 -0.113288  0.593503 -0.000000 -0.000000
  1O   1px        0.000000 -0.000000 -0.000000 -0.000000  1.210652  2.141905
  1O   1py        1.562265  0.080099 -0.593503 -0.113288 -0.000000 -0.000000
  1O   2pz        0.034164 -0.666347 -0.208102  1.090218 -0.000000 -0.000000
  1O   2px       -0.000000 -0.000000  0.000000  0.000000  1.684935  1.811914
  1O   2py        0.666347  0.034164 -1.090218 -0.208102 -0.000000 -0.000000
  1O   1dz2      -0.000000 -0.000000 -0.000000 -0.000000 -0.341756  0.171779
  1O   1dxz      -0.044981  0.877327  0.226428 -1.186225 -0.000000  0.000000
  1O   1dyz       0.000000 -0.000000  0.000000 -0.000000 -0.000000 -0.000000
  1O   1dx2y2    -0.000000 -0.000000  0.000000  0.000000  0.591938 -0.297531
  1O   1dxy      -0.877327 -0.044981  1.186225  0.226428 -0.000000  0.000000
  2O   1s        -0.000000  0.000000  0.000000  0.000000  0.080132  0.213497
  2O   2s         0.000000  0.000000 -0.000000 -0.000000 -9.806476  1.306864
  2O   3s        -0.000000  0.000000  0.000000  0.000000 -3.620593  1.137544
  2O   1pz       -0.074587  1.454767 -0.087960  0.460808 -0.000000 -0.000000
  2O   1px        0.000000 -0.000000  0.000000  0.000000 -2.105882  1.287237
  2O   1py       -1.454767 -0.074587 -0.460808 -0.087960 -0.000000 -0.000000
  2O   2pz       -0.031200  0.608525 -0.190007  0.995419 -0.000000 -0.000000
  2O   2px       -0.000000  0.000000  0.000000  0.000000 -1.972038  0.713059
  2O   2py       -0.608525 -0.031200 -0.995419 -0.190007 -0.000000 -0.000000
  2O   1dz2       0.000000  0.000000 -0.000000 -0.000000 -0.233647 -0.362467
  2O   1dxz      -0.050582  0.986571 -0.208831  1.094038 -0.000000  0.000000
  2O   1dyz      -0.000000  0.000000  0.000000 -0.000000 -0.000000 -0.000000
  2O   1dx2y2     0.000000  0.000000  0.000000  0.000000  0.404688  0.627811
  2O   1dxy      -0.986571 -0.050582 -1.094038 -0.208831 -0.000000  0.000000
             **** ENERGY FILE WAS UPDATED (job.en.tmp) ****
Finished Guess after   0.0 sec
Maximum memory used throughout the entire GUESS-calculation: 5.8 MB

-------------------------------------------------------------------------------------------
                                      ORCA LEAN-SCF
                              memory conserving SCF solver
-------------------------------------------------------------------------------------------

----------------------------------------D-I-I-S--------------------------------------------
Iteration    Energy (Eh)           Delta-E    RMSDP     MaxDP     DIISErr   Damp  Time(sec)
-------------------------------------------------------------------------------------------
               ***  Starting incremental Fock matrix formation  ***
                              *** Initializing SOSCF ***
---------------------------------------S-O-S-C-F--------------------------------------
Iteration    Energy (Eh)           Delta-E    RMSDP     MaxDP     MaxGrad    Time(sec)
--------------------------------------------------------------------------------------
    1    -182.7250902297087123     0.00e+00  1.13e-07  7.66e-07  7.02e-08     0.2

                         ----------------------------
                         !        ITERATION     0   !
                         ----------------------------
   Total Energy        :    -182.725090229709 Eh
   Energy Change       :     182.725090229709 Eh
   MAX-DP              :       0.000000766420
   RMS-DP              :       0.000000113350
   Orbital gradient    :       0.000000070211
   Orbital Rotation    :       0.000000070211
   alpha HOMO          :      -0.3550 Eh
   alpha LUMO          :       0.1525 Eh
   Int. Num. El.       :    21.99999285 (UP=   10.99999642 DN=   10.99999642)
   Exchange            :   -18.84552135 Eh
   Correlation         :    -1.00170911 Eh

               *** Restarting incremental Fock matrix formation ***
    2    -182.7250902297072344     1.48e-12  7.72e-08  5.68e-07  2.36e-07     0.2
                  *** Gradient check signals convergence ***

                         ----------------------------
                         !        ITERATION     1   !
                         ----------------------------
   Total Energy        :    -182.725090229707 Eh
   Energy Change       :      -0.000000000001 Eh
   MAX-DP              :       0.000000568439
   RMS-DP              :       0.000000077158
   Orbital gradient    :       0.000000235691
   Orbital Rotation    :       0.000000192334
   alpha HOMO          :      -0.3550 Eh
   alpha LUMO          :       0.1525 Eh
   Int. Num. El.       :    21.99999285 (UP=   10.99999642 DN=   10.99999642)
   Exchange            :   -18.84551944 Eh
   Correlation         :    -1.00170906 Eh


               *****************************************************
               *                     SUCCESS                       *
               *           SCF CONVERGED AFTER   2 CYCLES          *
               *****************************************************

Recomputing exchange energy using gridx3       ... done (    0.222 sec)
Old exchange energy                            :     -4.745838817 Eh
New exchange energy                            :     -4.745838098 Eh
Exchange energy change after final integration :      0.000000719 Eh
Total energy after final integration           :   -182.725089511 Eh
             **** ENERGY FILE WAS UPDATED (job.en.tmp) ****

----------------
TOTAL SCF ENERGY
----------------

Total Energy       :       -182.72508951088699 Eh           -4972.20247 eV

Components:
Nuclear Repulsion  :        110.11639934798359 Eh            2996.41956 eV
Electronic Energy  :       -292.84148957769082 Eh           -7968.62205 eV
One Electron Energy:       -461.11137959929317 Eh          -12547.47854 eV
Two Electron Energy:        168.26989002160235 Eh            4578.85649 eV

Virial components:
Potential Energy   :       -386.69545563614656 Eh          -10522.51830 eV
Kinetic Energy     :        203.97036612525960 Eh            5550.31583 eV
Virial Ratio       :          1.89584135667372

DFT components:
N(Alpha)           :       10.999996423922 electrons
N(Beta)            :       10.999996423922 electrons
N(Total)           :       21.999992847845 electrons
E(X)               :      -18.845519444317 Eh       
E(C)               :       -1.001709055315 Eh       
E(XC)              :      -19.847228499632 Eh       

---------------
SCF CONVERGENCE
---------------

  Last Energy change         ...   -1.4779e-12  Tolerance :   1.0000e-08
  Last MAX-Density change    ...    5.6844e-07  Tolerance :   1.0000e-07
  Last RMS-Density change    ...    7.7158e-08  Tolerance :   5.0000e-09
  Last DIIS Error            ...    6.8725e-07  Tolerance :   5.0000e-07
  Last Orbital Gradient      ...    2.3569e-07  Tolerance :   1.0000e-05
  Last Orbital Rotation      ...    1.9233e-07  Tolerance :   1.0000e-05


----------------
ORBITAL ENERGIES
----------------

  NO   OCC          E(Eh)            E(eV) 
   0   2.0000     -19.252218      -523.8795 
   1   2.0000     -19.162200      -521.4300 
   2   2.0000     -10.748583      -292.4838 
   3   2.0000      -1.281600       -34.8741 
   4   2.0000      -1.187409       -32.3110 
   5   2.0000      -0.974421       -26.5153 
   6   2.0000      -0.974421       -26.5153 
   7   2.0000      -0.518669       -14.1137 
   8   2.0000      -0.371618       -10.1122 
   9   2.0000      -0.371618       -10.1122 
  10   2.0000      -0.355019        -9.6606 
  11   0.0000       0.152460         4.1487 
  12   0.0000       0.225825         6.1450 
  13   0.0000       0.225825         6.1450 
  14   0.0000       0.315847         8.5946 
  15   0.0000       0.729873        19.8608 
  16   0.0000       0.793457        21.5911 
  17   0.0000       0.793457        21.5911 
  18   0.0000       0.816008        22.2047 
  19   0.0000       0.816008        22.2047 
  20   0.0000       0.840876        22.8814 
  21   0.0000       1.223555        33.2946 
  22   0.0000       1.340757        36.4839 
  23   0.0000       1.340757        36.4839 
  24   0.0000       1.364228        37.1225 
  25   0.0000       1.364229        37.1226 
  26   0.0000       1.592606        43.3370 
  27   0.0000       2.030216        55.2450 
  28   0.0000       2.567159        69.8560 
  29   0.0000       2.567170        69.8563 
  30   0.0000       2.960609        80.5623 
  31   0.0000       2.960609        80.5623 
  32   0.0000       3.242934        88.2447 
  33   0.0000       3.350014        91.1585 
  34   0.0000       3.564535        96.9959 
  35   0.0000       3.564540        96.9961 
  36   0.0000       4.153502       113.0225 
  37   0.0000       4.153502       113.0225 
  38   0.0000       4.494088       122.2904 
  39   0.0000       4.494088       122.2904 
  40   0.0000       6.372496       173.4044 
  41   0.0000       7.151799       194.6103 
------------------
MOLECULAR ORBITALS (RHF, ROHF)
------------------
                      0         1         2         3         4         5   
                 -19.25222 -19.16220 -10.74858  -1.28160  -1.18741  -0.97442
                   2.00000   2.00000   2.00000   2.00000   2.00000   2.00000
                  --------  --------  --------  --------  --------  --------
  0C   1s         0.003165 -0.001696  0.971503  0.068851  0.369621  0.000000
  0C   2s        -0.027436  0.027803 -0.095957  0.145745 -0.008906  0.000000
  0C   3s         0.001092 -0.003670 -0.008287 -0.012371 -0.053777  0.000000
  0C   1pz        0.000000 -0.000000 -0.000000 -0.000000 -0.000000  0.120184
  0C   1px       -0.001862 -0.007070  0.009673  0.799069 -0.179929  0.000000
  0C   1py        0.000000  0.000000 -0.000000  0.000000  0.000000 -0.503802
  0C   2pz       -0.000000  0.000000 -0.000000 -0.000000 -0.000000  0.029423
  0C   2px        0.012691  0.013176  0.000032  0.066869 -0.015380 -0.000000
  0C   2py       -0.000000 -0.000000 -0.000000  0.000000  0.000000 -0.123338
  0C   1dz2      -0.003844  0.001927  0.006840 -0.029433 -0.043328 -0.000000
  0C   1dxz      -0.000000 -0.000000 -0.000000 -0.000000  0.000000 -0.002056
  0C   1dyz       0.000000 -0.000000 -0.000000 -0.000000 -0.000000 -0.000000
  0C   1dx2y2     0.006659 -0.003337 -0.011847  0.050980  0.075047  0.000000
  0C   1dxy      -0.000000  0.000000 -0.000000 -0.000000  0.000000  0.008618
  1O   1s        -0.985732 -0.001614  0.034681  0.193142 -0.256513 -0.000000
  1O   2s         0.046272  0.006719  0.049811 -0.027711 -0.529561 -0.000000
  1O   3s        -0.019670 -0.025893  0.022555 -0.277142 -0.112076 -0.000000
  1O   1pz        0.000000  0.000000  0.000000 -0.000000 -0.000000  0.093751
  1O   1px       -0.013956 -0.000921 -0.035241 -0.208924  0.185633 -0.000000
  1O   1py        0.000000 -0.000000  0.000000  0.000000  0.000000 -0.392996
  1O   2pz       -0.000000  0.000000  0.000000 -0.000000 -0.000000 -0.005575
  1O   2px       -0.004360  0.005929 -0.009607  0.142999  0.005753  0.000000
  1O   2py        0.000000 -0.000000  0.000000 -0.000000 -0.000000  0.023369
  1O   1dz2      -0.002803 -0.001025 -0.004026 -0.031269 -0.005161 -0.000000
  1O   1dxz      -0.000000 -0.000000 -0.000000  0.000000  0.000000 -0.011309
  1O   1dyz      -0.000000  0.000000  0.000000 -0.000000 -0.000000  0.000000
  1O   1dx2y2     0.004854  0.001775  0.006972  0.054160  0.008938  0.000000
  1O   1dxy      -0.000000  0.000000 -0.000000 -0.000000 -0.000000  0.047405
  2O   1s        -0.001660  0.986141  0.024866 -0.271354 -0.141528 -0.000000
  2O   2s        -0.008024 -0.052521  0.054749 -0.337415 -0.433739 -0.000000
  2O   3s         0.029086  0.023361  0.029250  0.172728 -0.198221 -0.000000
  2O   1pz       -0.000000 -0.000000  0.000000 -0.000000 -0.000000  0.075671
  2O   1px       -0.000553 -0.013111  0.033794 -0.303665 -0.103522 -0.000000
  2O   1py       -0.000000 -0.000000  0.000000 -0.000000  0.000000 -0.317207
  2O   2pz        0.000000 -0.000000  0.000000  0.000000  0.000000 -0.008192
  2O   2px        0.007677 -0.003649  0.014626  0.103586 -0.069232 -0.000000
  2O   2py        0.000000  0.000000  0.000000 -0.000000 -0.000000  0.034342
  2O   1dz2       0.000880  0.002544 -0.003425  0.028096 -0.011995 -0.000000
  2O   1dxz      -0.000000 -0.000000  0.000000 -0.000000  0.000000  0.007685
  2O   1dyz      -0.000000  0.000000  0.000000  0.000000 -0.000000  0.000000
  2O   1dx2y2    -0.001523 -0.004407  0.005933 -0.048664  0.020775  0.000000
  2O   1dxy      -0.000000 -0.000000  0.000000 -0.000000  0.000000 -0.032214
                      6         7         8         9        10        11   
                  -0.97442  -0.51867  -0.37162  -0.37162  -0.35502   0.15246
                   2.00000   2.00000   2.00000   2.00000   2.00000   0.00000
                  --------  --------  --------  --------  --------  --------
  0C   1s         0.000000 -0.018513  0.000000 -0.000000 -0.286824  0.059580
  0C   2s         0.000000  0.067599  0.000000 -0.000000 -0.712149  0.711802
  0C   3s         0.000000  0.002951  0.000000 -0.000000 -0.244926  3.226615
  0C   1pz       -0.503802 -0.000000 -0.003471  0.019726  0.000000  0.000000
  0C   1px       -0.000000  0.397049  0.000000  0.000000  0.030119 -0.008343
  0C   1py       -0.120184  0.000000  0.019726  0.003471  0.000000 -0.000000
  0C   2pz       -0.123338 -0.000000 -0.002557  0.014531  0.000000  0.000000
  0C   2px        0.000000 -0.117106 -0.000000 -0.000000 -0.004376  0.056492
  0C   2py       -0.029423  0.000000  0.014531  0.002557  0.000000  0.000000
  0C   1dz2      -0.000000 -0.012255 -0.000000  0.000000  0.081254  0.043460
  0C   1dxz       0.008618 -0.000000  0.002509 -0.014257  0.000000  0.000000
  0C   1dyz       0.000000  0.000000  0.000000 -0.000000 -0.000000 -0.000000
  0C   1dx2y2     0.000000  0.021227  0.000000 -0.000000 -0.140736 -0.075275
  0C   1dxy       0.002056 -0.000000 -0.014257 -0.002509 -0.000000  0.000000
  1O   1s        -0.000000 -0.070864  0.000000 -0.000000 -0.051069 -0.089823
  1O   2s        -0.000000 -0.330056 -0.000000  0.000000  0.143220 -0.037802
  1O   3s        -0.000000 -0.356836 -0.000000 -0.000000  0.079660 -2.002970
  1O   1pz       -0.392996  0.000000  0.093630 -0.532055  0.000000  0.000000
  1O   1px       -0.000000 -0.426765  0.000000 -0.000000 -0.516412 -0.037121
  1O   1py       -0.093751  0.000000 -0.532055 -0.093630 -0.000000 -0.000000
  1O   2pz        0.023369  0.000000  0.057245 -0.325296  0.000000 -0.000000
  1O   2px        0.000000 -0.068089  0.000000 -0.000000 -0.405844  0.263252
  1O   2py        0.005575  0.000000 -0.325296 -0.057245 -0.000000 -0.000000
  1O   1dz2      -0.000000 -0.023876 -0.000000 -0.000000  0.004957  0.009992
  1O   1dxz       0.047405 -0.000000 -0.009390  0.053360 -0.000000 -0.000000
  1O   1dyz      -0.000000  0.000000  0.000000 -0.000000 -0.000000 -0.000000
  1O   1dx2y2     0.000000  0.041355  0.000000  0.000000 -0.008586 -0.017307
  1O   1dxy       0.011309 -0.000000  0.053360  0.009390  0.000000  0.000000
  2O   1s        -0.000000  0.091927 -0.000000 -0.000000 -0.060231 -0.084872
  2O   2s        -0.000000  0.270636 -0.000000  0.000000  0.138123 -0.035767
  2O   3s        -0.000000  0.374463 -0.000000  0.000000  0.054162 -1.806415
  2O   1pz       -0.317207 -0.000000 -0.099590  0.565921 -0.000000 -0.000000
  2O   1px        0.000000 -0.431079 -0.000000  0.000000  0.495015  0.035187
  2O   1py       -0.075671 -0.000000  0.565921  0.099590  0.000000 -0.000000
  2O   2pz        0.034342 -0.000000 -0.061047  0.346901 -0.000000 -0.000000
  2O   2px       -0.000000 -0.074559 -0.000000  0.000000  0.394446 -0.250457
  2O   2py        0.008192 -0.000000  0.346901  0.061047  0.000000 -0.000000
  2O   1dz2      -0.000000  0.025375 -0.000000  0.000000  0.002480  0.011252
  2O   1dxz      -0.032214 -0.000000 -0.009975  0.056683 -0.000000 -0.000000
  2O   1dyz      -0.000000 -0.000000 -0.000000  0.000000 -0.000000 -0.000000
  2O   1dx2y2     0.000000 -0.043950 -0.000000 -0.000000 -0.004295 -0.019489
  2O   1dxy      -0.007685 -0.000000  0.056683  0.009975  0.000000 -0.000000
                     12        13        14        15        16        17   
                   0.22582   0.22582   0.31585   0.72987   0.79346   0.79346
                   0.00000   0.00000   0.00000   0.00000   0.00000   0.00000
                  --------  --------  --------  --------  --------  --------
  0C   1s        -0.000000  0.000000 -0.009825 -0.252541  0.000000 -0.000000
  0C   2s        -0.000000  0.000000 -0.048801  4.846689 -0.000002  0.000000
  0C   3s         0.000000 -0.000000 -0.113404  1.679385 -0.000000  0.000000
  0C   1pz       -0.116333 -0.200889 -0.000000 -0.000000 -0.044351  0.925053
  0C   1px       -0.000000  0.000000  0.099651  0.048893 -0.000000  0.000000
  0C   1py        0.200889 -0.116333  0.000000 -0.000000 -0.925053 -0.044351
  0C   2pz        0.849186  1.466417  0.000000 -0.000000 -0.062805  1.309971
  0C   2px       -0.000000  0.000000  3.241587 -0.068787  0.000000 -0.000000
  0C   2py       -1.466417  0.849186 -0.000000 -0.000001 -1.309971 -0.062805
  0C   1dz2       0.000000 -0.000000 -0.001280 -0.050416  0.000000  0.000000
  0C   1dxz       0.002402  0.004148  0.000000 -0.000000 -0.011566  0.241232
  0C   1dyz       0.000000  0.000000  0.000000  0.000000 -0.000000  0.000000
  0C   1dx2y2    -0.000000  0.000000  0.002218  0.087323 -0.000000  0.000000
  0C   1dxy      -0.004148  0.002402  0.000000 -0.000000 -0.241232 -0.011566
  1O   1s        -0.000000  0.000000 -0.058642  0.022571  0.000000  0.000000
  1O   2s         0.000000 -0.000000 -0.001403 -0.277456  0.000000 -0.000000
  1O   3s        -0.000000  0.000000 -2.781272 -2.829386  0.000002 -0.000000
  1O   1pz       -0.060194 -0.103945 -0.000000  0.000000 -0.002808  0.058564
  1O   1px       -0.000000  0.000000 -0.163317 -0.296455  0.000000 -0.000000
  1O   1py        0.103945 -0.060194 -0.000000  0.000000 -0.058564 -0.002808
  1O   2pz       -0.217121 -0.374935 -0.000000  0.000000  0.090353 -1.884554
  1O   2px       -0.000000  0.000000 -0.068644  1.830995 -0.000001  0.000000
  1O   2py        0.374935 -0.217121 -0.000000  0.000000  1.884554  0.090353
  1O   1dz2       0.000000 -0.000000  0.001239  0.028832 -0.000000  0.000000
  1O   1dxz       0.016267  0.028090  0.000000  0.000000  0.001380 -0.028776
  1O   1dyz      -0.000000 -0.000000  0.000000  0.000000 -0.000000  0.000000
  1O   1dx2y2    -0.000000  0.000000 -0.002146 -0.049938  0.000000 -0.000000
  1O   1dxy      -0.028090  0.016267  0.000000  0.000000  0.028776  0.001380
  2O   1s        -0.000000  0.000000  0.066175  0.013571 -0.000000  0.000000
  2O   2s         0.000000 -0.000000 -0.000254 -0.213837  0.000000 -0.000000
  2O   3s        -0.000000  0.000000  2.965015 -2.455979  0.000000 -0.000000
  2O   1pz       -0.061116 -0.105537  0.000000  0.000000  0.016989 -0.354343
  2O   1px        0.000000 -0.000000 -0.143811  0.309322 -0.000000  0.000000
  2O   1py        0.105537 -0.061116  0.000000  0.000000  0.354343  0.016989
  2O   2pz       -0.225616 -0.389605  0.000000  0.000000  0.021746 -0.453569
  2O   2px        0.000000 -0.000000  0.027450 -1.623205  0.000000 -0.000000
  2O   2py        0.389605 -0.225616  0.000000  0.000000  0.453569  0.021746
  2O   1dz2       0.000000 -0.000000 -0.001966  0.023935 -0.000000  0.000000
  2O   1dxz      -0.014205 -0.024531  0.000000 -0.000000 -0.004281  0.089289
  2O   1dyz      -0.000000 -0.000000 -0.000000  0.000000 -0.000000  0.000000
  2O   1dx2y2    -0.000000  0.000000  0.003405 -0.041457  0.000000 -0.000000
  2O   1dxy       0.024531 -0.014205  0.000000 -0.000000 -0.089289 -0.004281
                     18        19        20        21        22        23   
                   0.81601   0.81601   0.84088   1.22356   1.34076   1.34076
                   0.00000   0.00000   0.00000   0.00000   0.00000   0.00000
                  --------  --------  --------  --------  --------  --------
  0C   1s         0.000000  0.000000  0.000527 -0.046654  0.000000 -0.000000
  0C   2s        -0.000001 -0.000001 -0.030692  0.249811 -0.000000  0.000000
  0C   3s        -0.000000 -0.000000 -0.003762  3.223823 -0.000000  0.000000
  0C   1pz        0.387653 -0.558242  0.000000 -0.000000  0.177656  0.242381
  0C   1px        0.000000  0.000000  0.565417 -0.039080  0.000000 -0.000000
  0C   1py       -0.558242 -0.387653  0.000000 -0.000000 -0.242381  0.177656
  0C   2pz        0.509830 -0.734184  0.000000  0.000000 -0.914070 -1.247087
  0C   2px       -0.000000 -0.000000 -0.944921  0.051530  0.000000 -0.000000
  0C   2py       -0.734184 -0.509830  0.000000  0.000000  1.247087 -0.914070
  0C   1dz2       0.000000  0.000000  0.010232  0.270619  0.000000 -0.000000
  0C   1dxz      -0.206651  0.297589 -0.000000 -0.000000 -0.005913 -0.008067
  0C   1dyz       0.000000 -0.000000 -0.000000  0.000000  0.000000  0.000000
  0C   1dx2y2    -0.000000 -0.000000 -0.017723 -0.468725  0.000000 -0.000000
  0C   1dxy       0.297589  0.206651 -0.000000  0.000000  0.008067 -0.005913
  1O   1s         0.000000  0.000000  0.013850  0.214476  0.000000  0.000000
  1O   2s         0.000000  0.000000  0.078163  2.168453 -0.000000  0.000000
  1O   3s        -0.000001 -0.000001 -2.665321 -3.513358  0.000000 -0.000000
  1O   1pz       -0.224086  0.322697 -0.000000  0.000000 -0.465347 -0.634883
  1O   1px       -0.000000 -0.000000 -0.125404  0.134572 -0.000000  0.000000
  1O   1py        0.322697  0.224086 -0.000000  0.000000  0.634883 -0.465347
  1O   2pz        0.045042 -0.064862  0.000000 -0.000000  0.727226  0.992171
  1O   2px        0.000001  0.000001  2.731698  0.168333 -0.000000  0.000000
  1O   2py       -0.064862 -0.045042  0.000000 -0.000000 -0.992171  0.727226
  1O   1dz2       0.000000  0.000000  0.008009  0.018044  0.000000 -0.000000
  1O   1dxz      -0.052415  0.075480 -0.000000  0.000000 -0.073401 -0.100143
  1O   1dyz       0.000000 -0.000000 -0.000000  0.000000  0.000000  0.000000
  1O   1dx2y2     0.000000  0.000000 -0.013872 -0.031253  0.000000 -0.000000
  1O   1dxy       0.075480  0.052415 -0.000000  0.000000  0.100143 -0.073401
  2O   1s         0.000000  0.000000 -0.005402  0.210495 -0.000000  0.000000
  2O   2s         0.000000  0.000000 -0.033704  2.057027 -0.000000  0.000000
  2O   3s         0.000002  0.000001  2.659457 -3.224506  0.000000 -0.000000
  2O   1pz        0.106228 -0.152975  0.000000  0.000000 -0.477486 -0.651445
  2O   1px       -0.000000 -0.000000 -0.112591 -0.102004  0.000000 -0.000000
  2O   1py       -0.152975 -0.106228  0.000000  0.000000  0.651445 -0.477486
  2O   2pz       -0.990221  1.425973 -0.000000 -0.000000  0.718133  0.979766
  2O   2px        0.000001  0.000001  2.741109 -0.162799  0.000000 -0.000000
  2O   2py        1.425973  0.990221 -0.000001 -0.000000 -0.979766  0.718133
  2O   1dz2      -0.000000 -0.000000 -0.007807  0.014758  0.000000 -0.000000
  2O   1dxz      -0.000543  0.000782 -0.000000 -0.000000  0.068991  0.094127
  2O   1dyz      -0.000000  0.000000  0.000000  0.000000  0.000000  0.000000
  2O   1dx2y2     0.000000  0.000000  0.013522 -0.025561  0.000000 -0.000000
  2O   1dxy       0.000782  0.000543 -0.000000  0.000000 -0.094127  0.068991
                     24        25        26        27        28        29   
                   1.36423   1.36423   1.59261   2.03022   2.56716   2.56717
                   0.00000   0.00000   0.00000   0.00000   0.00000   0.00000
                  --------  --------  --------  --------  --------  --------
  0C   1s        -0.000000  0.000000 -0.005565  0.032835  0.000000 -0.000000
  0C   2s         0.000000 -0.000000  0.008314 -6.737094  0.000000 -0.000000
  0C   3s         0.000000 -0.000000  0.062375 -1.670393  0.000000 -0.000000
[...]

------------------------------------------------------------------------------
                            ORCA SCF RESPONSE CALCULATION
------------------------------------------------------------------------------

GBWName                                 ... job.gbw
Number of atoms                         ...      3
Number of basis functions               ...     42
Max core memory                         ...   1024 MB

Electric field perturbation             ... YES
Quadrupolar field perturbation          ...  NO
Magnetic field perturbation (no GIAO)   ...  NO
Magnetic field perturbation (with GIAO) ...  NO
Linear momentum (velocity) perturbation ...  NO
Spin-orbit coupling perturbation        ...  NO
Choice of electric origin               ... Center of mass
Position of electric origin             ...     0.001026    -0.000000    -0.000000
Choice of magnetic origin               ... GIAO
Position of magnetic origin             ...     0.000000     0.000000     0.000000
Nuclear geometric perturbations         ... YES (   9 perturbations)
Nucleus-orbit perturbations             ...  NO (   0 perturbations)
Spin-dipole/Fermi contact perturbations ...  NO (   0 perturbations)

Total number of real perturbations      ...     12
Total number of imaginary perturbations ...      0
Total number of triplet perturbations   ...      0
Total number of SOC perturbations       ...      0


                                **********************
                                * REAL PERTURBATIONS *
                                **********************



-------------------
SHARK CP-SCF DRIVER
-------------------

Dimension of the orbital basis          ...     42
Dimension of the CPSCF-problem          ...    341
Number of operators                     ...      1
Max. number of iterations               ...    128
Convergence Tolerance                   ... 1.0e-04
Number of perturbations                 ...     12
Perturbation type                       ... REAL

----------------------------
POPLE LINEAR EQUATION SOLVER
----------------------------

  ITERATION   0:   ||err||_max =   7.3854e-01 (   0.1 sec   0/ 12 done)
  ITERATION   1:   ||err||_max =   6.6828e-02 (   0.1 sec   0/ 12 done)
  ITERATION   2:   ||err||_max =   9.4311e-03 (   0.1 sec   0/ 12 done)
  ITERATION   3:   ||err||_max =   1.6751e-03 (   0.1 sec   6/ 12 done)
  ITERATION   4:   ||err||_max =   2.8867e-04 (   0.1 sec   8/ 12 done)
  ITERATION   5:   ||err||_max =   3.6100e-05 (   0.1 sec  12/ 12 done)

CP-SCF equations solved in   0.6 sec
Response densities calculated in   0.0 sec

Maximum memory used throughout the entire SCFRESP-calculation: 7.1 MB

------------------------------------------------------------------------------
                              ORCA PROPERTY CALCULATIONS
------------------------------------------------------------------------------

GBWName                                 ... job.gbw
Number of atoms                         ...      3
Number of basis functions               ...     42
Max core memory                         ...   1024 MB

Electric properties:
Dipole moment                           ... YES
Quadrupole moment                       ...  NO
Static polarizability (Dipole/Dipole)   ... YES
Static polarizability (Dipole/Quad.)    ...  NO
Static polarizability (Quad./Quad.)     ...  NO
Static polarizability (Velocity)        ...  NO

Atomic electric properties:
Dipole moment                           ...  NO
Quadrupole moment                       ...  NO
Static polarizability                   ...  NO

Choice of electric origin               ... Center of mass
Position of electric origin             ...     0.001026    -0.000000    -0.000000

General magnetic properties:
Magnetizability                         ...  NO

EPR properties:
g-Tensor (aka g-matrix)                 ...  NO
Zero-Field splitting spin-orbit         ...  NO
Zero-field splitting spin-spin          ...  NO
Hyperfine couplings                     ...  NO (   0 nuclei)
Quadrupole couplings                    ...  NO (   0 nuclei)
Contact density                         ...  NO (   0 nuclei)

NMR properties:
Chemical shifts                         ...  NO (   0 nuclei)
Spin-rotation constants                 ...  NO (   0 nuclei)
Spin-spin couplings                     ...  NO (   0 nuclei,    0 pairs)

Choice of magnetic origin               ... GIAO
Position of magnetic origin             ...     0.000000     0.000000     0.000000

Properties with geometric perturbations:
SCF Hessian                             ... YES
IR spectrum                             ... YES
VCD spectrum                            ...  NO
X-ray spectroscopy properties:
SCF XES/XAS/RIXS spectra                ...  NO


-------------
DIPOLE MOMENT
-------------

Method             : SCF
Type of density    : Electron Density
Multiplicity       :   1
Irrep              :   0
Energy             :  -182.7250895108869884 Eh
Relativity type    : 
Basis              : AO
                                X                 Y                 Z
Electronic contribution:      0.127497890       0.000000069       0.000000002
Nuclear contribution   :     -0.000159261      -0.000000000      -0.000000000
                        -----------------------------------------
Total Dipole Moment    :      0.127338629       0.000000069       0.000000002
                        -----------------------------------------
Magnitude (a.u.)       :      0.127338629
Magnitude (Debye)      :      0.323669072



--------------------
Rotational spectrum 
--------------------
 
Rotational constants in cm-1:             0.000000             1.389839             1.389839 
Rotational constants in MHz :             0.000000         41666.339615         41666.339615 

Dipole components along the rotational axes: 
x,y,z [a.u.] :     0.127339    -0.000000    -0.000000 
x,y,z [Debye]:     0.323669    -0.000000    -0.000000 

 

Dipole moment calculation done in   0.0 sec 


---------------------------------------------------
STATIC POLARIZABILITY TENSOR (Dipole/Dipole)
---------------------------------------------------

Method             : SCF
Type of density    : Electron Density
Type of derivative : Electric Field (Direction=X)
Multiplicity       :   1
Irrep              :   0
Relativity type    : 
Basis              : AO

The raw cartesian tensor (atomic units):
       8.397221463         0.000000020        -0.000000048  
       0.000000020         4.171696382        -0.000000002  
      -0.000000048        -0.000000002         4.171696387  
diagonalized tensor: 
       4.171696382         4.171696387         8.397221463  

Orientation: 
       0.000000001         0.000000012         1.000000000  
      -0.956027527        -0.293276947         0.000000005  
      -0.293276947         0.956027527        -0.000000011  

Isotropic polarizability :   5.58020


Polarizability tensor calculation done in   0.0 sec 

-----------
SCF HESSIAN
-----------

Occupied/Occupied contributions to the Hessian:
   => Occupied/Occupied contributions              ... done (  0.0 sec)
Perturbed density contributions to the Hessian:
   => Perturbed density contributions              ... done (  0.0 sec)
Explicit contributions to the Hessian:
   => Nuclear repulsion Hessian                    ... done (  0.0 sec)
   => HCore and overlap Hessian                    ... done (  0.0 sec)
   => RI-J Hessian                                 ... done (  0.2 sec)
   => COSX Hessian                                 ... done ( 10.8 sec)
   => XC-Hessian                                   ... done (  0.7 sec)
   => Explicit contributions done
E-field response densities           ... done
Dipole derivatives                                 ... done (  0.0 sec)
Mass weighting the Hessian           ... done
Calculating normal modes             ... done
Scaling frequencies                  ... done

-----------------------
VIBRATIONAL FREQUENCIES
-----------------------

Scaling factor for frequencies =  1.000000000  (already applied!)

     0:       0.00 cm**-1
     1:       0.00 cm**-1
     2:       0.00 cm**-1
     3:       0.00 cm**-1
     4:       0.00 cm**-1
     5:   -6585.30 cm**-1  ***imaginary mode***
     6:   -6585.30 cm**-1  ***imaginary mode***
     7:    7329.86 cm**-1
     8:   14131.63 cm**-1


------------
NORMAL MODES
------------

These modes are the Cartesian displacements weighted by the diagonal matrix
M(i,i)=1/sqrt(m[i]) where m[i] is the mass of the displaced atom
Thus, these vectors are normalized but *not* orthogonal

                  0          1          2          3          4          5    
      0       0.000000   0.000000   0.000000   0.000000   0.000000  -0.000000
      1       0.000000   0.000000   0.000000   0.000000   0.000000  -0.580316
      2       0.000000   0.000000   0.000000   0.000000   0.000000  -0.665740
      3       0.000000   0.000000   0.000000   0.000000   0.000000   0.000000
      4       0.000000   0.000000   0.000000   0.000000   0.000000   0.224813
      5       0.000000   0.000000   0.000000   0.000000   0.000000   0.257906
      6       0.000000   0.000000   0.000000   0.000000   0.000000  -0.000000
      7       0.000000   0.000000   0.000000   0.000000   0.000000   0.210850
      8       0.000000   0.000000   0.000000   0.000000   0.000000   0.241888
                  6          7          8    
      0      -0.000000  -0.081000   0.880842
      1      -0.665740  -0.000000  -0.000000
      2       0.580316   0.000000  -0.000000
      3       0.000000  -0.673722  -0.382952
      4       0.257906   0.000000   0.000000
      5      -0.224813  -0.000000   0.000000
      6      -0.000000   0.734532  -0.278326
      7       0.241888   0.000000  -0.000000
      8      -0.210850   0.000000  -0.000000


-----------
IR SPECTRUM
-----------

 Mode   freq       eps      Int      T**2         TX        TY        TZ
       cm**-1   L/(mol*cm) km/mol    a.u.
----------------------------------------------------------------------------
  7:   7329.86   0.002258   11.41  0.000096  (-0.009805 -0.000000 -0.000000)
  8:  14131.63   0.251681  1271.89  0.005558  ( 0.074550  0.000000 -0.000000)

* The epsilon (eps) is given for a Dirac delta lineshape.
** The dipole moment derivative (T) already includes vibrational overlap.

The first frequency considered to be a vibration is 7
The total number of vibrations considered is 2


--------------------------
THERMOCHEMISTRY AT 298.15K
--------------------------

Temperature         ...   298.15 K
Pressure            ...     1.00 atm
Total Mass          ...    44.01 AMU
Quasi RRHO          ...     True
Cut-Off Frequency   ...     1.00 cm^-1
The molecule is recognized as being linear

Throughout the following assumptions are being made:
  (1) The electronic state is orbitally nondegenerate
  (2) There are no thermally accessible electronically excited states
  (3) Hindered rotations indicated by low frequency modes are not
      treated as such but are treated as vibrations and this may
      cause some error
  (4) All equations used are the standard statistical mechanics
      equations for an ideal gas
  (5) All vibrations are strictly harmonic

freq.    7329.86  E(vib)   ...       0.00 
freq.   14131.63  E(vib)   ...       0.00 

------------
INNER ENERGY
------------

The inner energy is: U= E(el) + E(ZPE) + E(vib) + E(rot) + E(trans)
    E(el)   - is the total energy from the electronic structure calculation
              = E(kin-el) + E(nuc-el) + E(el-el) + E(nuc-nuc)
    E(ZPE)  - the the zero temperature vibrational energy from the frequency calculation
    E(vib)  - the the finite temperature correction to E(ZPE) due to population
              of excited vibrational states
    E(rot)  - is the rotational thermal energy
    E(trans)- is the translational thermal energy

Summary of contributions to the inner energy U:
Electronic energy                ...   -182.72508951 Eh
Zero point energy                ...      0.04889288 Eh      30.68 kcal/mol
Thermal vibrational correction   ...      0.00000000 Eh       0.00 kcal/mol
Thermal rotational correction    ...      0.00094418 Eh       0.59 kcal/mol
Thermal translational correction ...      0.00141627 Eh       0.89 kcal/mol
-----------------------------------------------------------------------
Total thermal energy                   -182.67383618 Eh


Summary of corrections to the electronic energy:
(perhaps to be used in another calculation)
Total thermal correction                  0.00236045 Eh       1.48 kcal/mol
Non-thermal (ZPE) correction              0.04889288 Eh      30.68 kcal/mol
-----------------------------------------------------------------------
Total correction                          0.05125333 Eh      32.16 kcal/mol


--------
ENTHALPY
--------

The enthalpy is H = U + kB*T
                kB is Boltzmann's constant
Total thermal energy              ...   -182.67383618 Eh 
Thermal Enthalpy correction       ...      0.00094421 Eh       0.59 kcal/mol
-----------------------------------------------------------------------
Total Enthalpy                    ...   -182.67289197 Eh


Note: Rotational entropy computed according to Herzberg 
Infrared and Raman Spectra, Chapter V,1, Van Nostrand Reinhold, 1945 
Point Group:  C(inf)v, Symmetry Number:   1  
Rotational constants in cm-1:     0.000000     1.389839     1.389839 

Vibrational entropy computed according to the QRRHO of S. Grimme
Chem.Eur.J. 2012 18 9955 using a reference frequency of 100.0 cm-1


-------
ENTROPY
-------

The entropy contributions are T*S = T*(S(el)+S(vib)+S(rot)+S(trans))
     S(el)   - electronic entropy
     S(vib)  - vibrational entropy
     S(rot)  - rotational entropy
     S(trans)- translational entropy
The entropies will be listed as multiplied by the temperature to get
units of energy

Electronic entropy                ...      0.00000000 Eh      0.00 kcal/mol
Vibrational entropy               ...     -0.00000000 Eh     -0.00 kcal/mol
Rotational entropy                ...      0.00566945 Eh      3.56 kcal/mol
Translational entropy             ...      0.01770880 Eh     11.11 kcal/mol
-----------------------------------------------------------------------
Final entropy term                ...      0.02337825 Eh     14.67 kcal/mol


-------------------
GIBBS FREE ENERGY
-------------------

The Gibbs free energy is G = H - T*S

Total enthalpy                    ...   -182.67289197 Eh 
Total entropy correction          ...     -0.02337825 Eh    -14.67 kcal/mol
-----------------------------------------------------------------------
Final Gibbs free energy         ...   -182.69627022 Eh

For completeness - the Gibbs free energy minus the electronic energy
G-E(el)                           ...      0.02881929 Eh     18.08 kcal/mol


Maximum memory used throughout the entire PROP-calculation: 10.1 MB

--------------------------------
SUGGESTED CITATIONS FOR THIS RUN
--------------------------------

Below you find a list of papers that are relevant to this ORCA run
We neither can nor want to force you to cite these papers, but we appreciate if you do
You receive ORCA, which is the product of decades of hard work by many enthusiastic individuals, for free
The only thing we kindly ask in return is that you cite our papers,
We deeply appreciate it, if you show your appreciation for ORCA by not just citing the generic ORCA reference.

Please note that relegating all ORCA citations to the supporting information does *not* help us.
SI sections are not indexed - citations you put there will not count into any citation statistics
But we need these citations in order to attract the funding resources that allow us to do what we are doing

Therefore, if you are a happy ORCA user, please consider citing a few of the papers listed below in the main body of your paper

In addition to the list printed below, the program has created the file job.bibtex that contains the list in bibtex format
You can import this file easily into all common literature databanks and citation aid programs


List of essential papers. We consider these as the minimum necessary citations

  1. Neese,F.
     Software update: the ORCA program system, version 5.0
     WIRES Comput. Molec. Sci., 2022 12(1)e1606
     doi.org/10.1002/wcms.1606

List of papers to cite with high priority. The work reported in these papers was absolutely
necessary for this run to complete.
Our perspective: the developers of density functionals and basis sets usually get cited in chemistry papers
Good! But without the algorithms to do something with them, the functionals or basis sets would not do anything.
Hence, in our opinion, the algorithm design and method developments papers are equally worthy of getting cited

  1. Neese,F.
     An improvement of the resolution of the identity approximation for the formation of the Coulomb matrix
     J. Comp. Chem., 2003 24(14)1740-1747
     doi.org/10.1002/jcc.10318
  2. Neese,F.; Wennmohs,F.; Hansen,A.; Becker,U.
     Efficient, approximate and parallel Hartree-Fock and hybrid DFT calculations. A 'chain-of-spheres' algorithm for the Hartree-Fock exchange
     Chem. Phys., 2009 356(1-3)98-109
     doi.org/10.1016/j.chemphys.2008.10.036
  3. Bykov,D.; Petrenko,T.; Izsak,R.; Kossmann,S.; Becker,U.; Valeev,E.; Neese,F.
     Efficient implementation of the analytic second derivatives of Hartree-Fock and hybrid DFT energies: a detailed analysis of different approximations
     Molec. Phys., 2015 113 1961-1977
     doi.org/10.1080/00268976.2015.1025114
  4. Helmich-Paris,B.; de Souza,B.; Neese,F.; Izsák,R.
     An improved chain of spheres for exchange algorithm
     J. Chem. Phys., 2021 155 104109
     doi.org/doi: 10.1063/5.0058766.
  5. Neese,F.
     The SHARK Integral Generation and Digestion System
     J. Comp. Chem., 2022  1-16
     doi.org/10.1002/jcc.26942

List of suggested additional citations. These are papers that are important in the 'surrounding' of 
of this run, or papers that preceded the highly important papers. If you like your results we are grateful for a citation.

  1. Izsak,R.; Neese,F.
     An overlap fitted chain of spheres exchange method
     J. Chem. Phys., 2011 135 144105
     doi.org/10.1063/1.3646921
  2. Izsak,R.; Hansen,A.; Neese,F.
     The resolution of identity and chain of spheres approximations for the LPNO-CCSD singles Fock term
     Molec. Phys., 2012 110 2413-2417
     doi.org/10.1080/00268976.2012.687466
  3. Neese,F.
     The ORCA program system
     WIRES Comput. Molec. Sci., 2012 2(1)73-78
     doi.org/10.1002/wcms.81
  4. Izsak,R.; Neese,F.; Klopper,W.
     Robust fitting techniques in the chain of spheres approximation to the Fock exchange: The role of the complementary space
     J. Chem. Phys., 2013 139 
     doi.org/10.1063/1.4819264
  5. Neese,F.
     Software update: the ORCA program system, version 4.0
     WIRES Comput. Molec. Sci., 2018 8(1)1-6
     doi.org/10.1002/wcms.1327
  6. Neese,F.; Wennmohs,F.; Becker,U.; Riplinger,C.
     The ORCA quantum chemistry program package
     J. Chem. Phys., 2020 152 Art. No. L224108
     doi.org/10.1063/5.0004608

List of optional additional citations

  1. Neese,F.
     Approximate second-order SCF convergence for spin unrestricted wavefunctions
     Chem. Phys. Lett., 2000 325(1-3)93-98
     doi.org/10.1016/s0009-2614(00)00662-x

Timings for individual modules:

Sum of individual times          ...       14.839 sec (=   0.247 min)
Startup calculation              ...        0.157 sec (=   0.003 min)   1.1 %
SCF iterations                   ...        0.644 sec (=   0.011 min)   4.3 %
Property integrals               ...        1.581 sec (=   0.026 min)  10.7 %
SCF Response                     ...        0.668 sec (=   0.011 min)   4.5 %
Property calculations            ...       11.789 sec (=   0.196 min)  79.4 %
                             ****ORCA TERMINATED NORMALLY****
TOTAL RUN TIME: 0 days 0 hours 0 minutes 14 seconds 897 msec
