
                                 *****************
                                 * O   R   C   A *
                                 *****************

                                            #,                                       
                                            ###                                      
                                            ####                                     
                                            #####                                    
                                            ######                                   
                                           ########,                                 
                                     ,,################,,,,,                         
                               ,,#################################,,                 
                          ,,##########################################,,             
                       ,#########################################, ''#####,          
                    ,#############################################,,   '####,        
                  ,##################################################,,,,####,       
                ,###########''''           ''''###############################       
              ,#####''   ,,,,##########,,,,          '''####'''          '####       
            ,##' ,,,,###########################,,,                        '##       
           ' ,,###''''                  '''############,,,                           
         ,,##''                                '''############,,,,        ,,,,,,###''
      ,#''                                            '''#######################'''  
     '                                                          ''''####''''         
             ,#######,   #######,   ,#######,      ##                                
            ,#'     '#,  ##    ##  ,#'     '#,    #''#        ,####,   ,####,        
            ##       ##  ##   ,#'  ##            #'  '#       #'       #'  '#        
            ##       ##  #######   ##           ,######,      #####,   #    #        
            '#,     ,#'  ##    ##  '#,     ,#' ,#      #,     #,   #   #,  ,#        
             '#######'   ##     ##  '#######'  #'      '#     '####' # '####'        



                #########################################################
                #                        -***-                          #
                #          Department of theory and spectroscopy        #
                #                                                       #
                #                      Frank Neese                      #
                #                                                       #
                #     Directorship, Architecture, Infrastructure        #
                #                    SHARK, DRIVERS                     #
                #        Core code/Algorithms in most modules           #
                #                                                       #
                #        Max Planck Institute fuer Kohlenforschung      #
                #                Kaiser Wilhelm Platz 1                 #
                #                 D-45470 Muelheim/Ruhr                 #
                #                      Germany                          #
                #                                                       #
                #                  All rights reserved                  #
                #                        -***-                          #
                #########################################################


                         Program Version 6.0.1  -  RELEASE   -


 With contributions from (in alphabetic order):
[Max-Planck-Institut fuer Kohlenforschung]                               
  Daniel Aravena         : Magnetic Suceptibility                        
  Michael Atanasov       : Ab Initio Ligand Field Theory (pilot matlab implementation)
  Alexander A. Auer      : GIAO ZORA, VPT2 properties, NMR spectrum      
  Ute Becker             : All parallelization in ORCA, NUMFREQ, NUMCALC 
  Giovanni Bistoni       : ED, misc. LED, open-shell LED, HFLD           
  Martin Brehm           : Molecular dynamics                            
  Dmytro Bykov           : pre 5.0 version of the SCF Hessian            
  Marcos Casanova-Páez   : Triplet and SCS-CIS(D). UHF-(DLPNO)-IP/EA/STEOM-CCSD. UHF-CVS-IP/STEOM-CCSD   
  Vijay G. Chilkuri      : MRCI spin determinant printing, contributions to CSF-ICE 
  Pauline Colinet        : FMM embedding                                 
  Dipayan Datta          : RHF DLPNO-CCSD density                        
  Achintya Kumar Dutta   : EOM-CC, STEOM-CC                              
  Nicolas Foglia         : Exact transition moments, OPA infrastructure, MCD improvements    
  Dmitry Ganyushin       : Spin-Orbit,Spin-Spin,Magnetic field MRCI      
  Miquel Garcia-Rates    : C-PCM and meta-GGA Hessian, CCSD/C-PCM, Gaussian charge scheme 
  Tiago L. C. Gouveia    : GS-ROHF, GS-ROCIS                             
  Yang Guo               : DLPNO-NEVPT2, F12-NEVPT2, CIM, IAO-localization        
  Andreas Hansen         : Spin unrestricted coupled pair/coupled cluster methods 
  Ingolf Harden          : AUTO-CI MPn and infrastructure                
  Benjamin Helmich-Paris : MC-RPA, TRAH-(SCF,CASSCF), AVAS, COSX integrals, SCF dyn. polar. 
  Lee Huntington         : MR-EOM, pCC                                   
  Robert Izsak           : Overlap fitted RIJCOSX, COSX-SCS-MP3, EOM     
  Riya Kayal             : Wick's Theorem for AUTO-CI, AUTO-CI UHF-CCSDT 
  Emily Kempfer          : AUTO-CI, RHF CISDT and CCSDT                  
  Christian Kollmar      : KDIIS, OOCD, Brueckner-CCSD(T), CCSD density, CASPT2, CASPT2-K, improved NEVPT2 
  Axel Koslowski         : Symmetry handling                             
  Simone Kossmann        : meta-GGA functionals, TD-DFT gradient, OOMP2, (MP2 Hessian; deprecated post 5.0) 
  Lucas Lang             : DCDCAS                                        
  Marvin Lechner         : AUTO-CI (C++ implementation), FIC-MRCC        
  Spencer Leger          : CASSCF response                               
  Dagmar Lenk            : GEPOL surface, SMD, ORCA-2-JSON               
  Dimitrios Liakos       : Extrapolation schemes; Compound Job, initial MDCI parallelization 
  Dimitrios Manganas     : Further ROCIS development; embedding schemes. LFT, Crystal Embedding 
  Dimitrios Pantazis     : SARC Basis sets                               
  Anastasios Papadopoulos: AUTO-CI, single reference methods and gradients 
  Taras Petrenko         : pre 6.0 DFT Hessian and TD-DFT gradient, (ASA, deprecated), ECA, 1-Electron XAS/XES, NRVS 
  Peter Pinski           : DLPNO-MP2, DLPNO-MP2 Gradient                 
  Christoph Reimann      : Effective Core Potentials                     
  Marius Retegan         : Local ZFS, SOC                                
  Christoph Riplinger    : Optimizer, TS searches, QM/MM, DLPNO-CCSD(T), (RO)-DLPNO pert. Triples 
  Michael Roemelt        : Original ROCIS implementation                 
  Masaaki Saitow         : Open-shell DLPNO-CCSD energy and density      
  Barbara Sandhoefer     : DKH picture change effects                    
  Kantharuban Sivalingam : CASSCF convergence/infrastructure, NEVPT2 and variants, FIC-MRCI 
  Bernardo de Souza      : ESD, SOC TD-DFT                               
  Georgi L. Stoychev     : AutoAux, RI-MP2 NMR, DLPNO-MP2 response, X2C  
  Van Anh Tran           : RI-MP2 g-tensors                              
  Willem Van den Heuvel  : Paramagnetic NMR                              
  Zikuan Wang            : NOTCH, Electric field optimization            
  Frank Wennmohs         : Technical directorship and infrastructure     
  Hang Xu                : AUTO-CI-Response properties                   
                                                                         
[FACCTs GmbH]                                                            
  Markus Bursch, Miquel Garcia-Rates, Christoph Riplinger, Bernardo de Souza, Georgi L. Stoychev 
                                                                 
  APM, Basis sets (HGBS, AHGBS, def-TZVP (Ac-Lr), def2-XVPD (La-Lu)), CI-OPT, improved COSX, DLPNO-Multilevel,           
  DOCKER, DRACO, updates on ESD, GOAT, IRC, LR-CPCM, MBIS, meta-GGA TD-DFT gradient, ML-optimized integration grids, 
  MM, NACMEs, nearIR, NEB, NEB-TS, NL-DFT gradient (VV10), 2- and 3-layer-ONIOM, interface openCOSMO-RS, QMMM,   
  Crystal-QMMM, SF, symmetry and pop. for TD-DFT, r2SCAN hybrids, SOLVATOR                                   
                                                                         
[Other institutions]                                                     
  V. Asgeirsson          : NEB                                           
  Christoph Bannwarth    : sTDA-DFT, sTD-DFT, PBEh-3c, B97-3c, D3        
  Sebastian Ehlert       : rSCAN, r2SCAN, r2SCAN-3c, D4, dhf basis sets  
  Marvin Friede          : D4 for Fr, Ra, Ac-Lr                          
  Lars Goerigk           : TD-DFT with DH, B97 family of functionals     
  Stefan Grimme          : VdW corrections, initial TS optimization, DFT functionals, gCP, sTDA/sTD-DF 
  Waldemar Hujo          : DFT-NL                                        
  H. Jonsson             : NEB                                           
  Holger Kruse           : gCP                                           
  Marcel Mueller         : wB97X-3c, vDZP basis set                      
  Hagen Neugebauer       : wr2SCAN                                       
  Tobias Risthaus        : range-separated hybrid DFT                    
  Lukas Wittmann         : regularized MP2, r2SCAN double-hybrids, wr2SCAN        
                                                                         
We gratefully acknowledge several colleagues who have allowed us to      
interface, adapt or use parts of their codes:                            
  Ed Valeev, F. Pavosevic, A. Kumar             : LibInt (2-el integral package), F12 methods 
  Garnet Chan, S. Sharma, J. Yang, R. Olivares  : DMRG                   
  Ulf Ekstrom                                   : XCFun DFT Library      
  Mihaly Kallay                                 : mrcc  (arbitrary order and MRCC methods)
  Frank Weinhold                                : gennbo (NPA and NBO analysis)           
  Simon Mueller                                 : openCOSMO-RS                            
  Christopher J. Cramer and Donald G. Truhlar   : smd solvation model                     
  S Lehtola, MJT Oliveira, MAL Marques          : LibXC Library                           
  Liviu Ungur et al                             : ANISO software                          


 Your calculation uses the libint2 library for the computation of 2-el integrals
 For citations please refer to: http://libint.valeyev.net

 Your ORCA version has been built with support for libXC version: 6.2.2
 For citations please refer to: https://libxc.gitlab.io

 This ORCA versions uses:
   CBLAS   interface :  Fast vector & matrix operations
   LAPACKE interface :  Fast linear algebra routines
   SCALAPACK package :  Parallel linear algebra routines
   Shared memory     :  Shared parallel matrices
   BLAS/LAPACK       :  OpenBLAS 0.3.27  USE64BITINT DYNAMIC_ARCH NO_AFFINITY SkylakeX SINGLE_THREADED
        Core in use  :  SkylakeX
   Copyright (c) 2011-2014, The OpenBLAS Project


Warning: RI is on but no J-basis has been assigned. Assigning Def2/J (nothing to worry about!)
================================================================================

----- Orbital basis set information -----
Your calculation utilizes the basis: def2-SVP
   F. Weigend and R. Ahlrichs, Phys. Chem. Chem. Phys. 7, 3297 (2005).

----- AuxJ basis set information -----
Your calculation utilizes the auxiliary basis: def2/J
   F. Weigend, Phys. Chem. Chem. Phys. 8, 1057 (2006).

================================================================================
                                        WARNINGS
                       Please study these warnings very carefully!
================================================================================

WARNING: Old DensityContainer found on disk!
         Will remove this file - 
         If you want to keep old densities, please start your calculation with a different basename. 


WARNING: Analytical Hessian not available for calculation of RAMAN spectra
       : If you need RAMAN spectra, please choose NumFreq!
       : Will only calculate polarizabilties



================================================================================
                                       INPUT FILE
================================================================================
NAME = job.inp
|  1> ! B3LYP def2-SVP TightSCF Freq
|  2> %output
|  3>   PrintLevel 5
|  4> end
|  5> * xyz 0 1
|  6>    C         -0.0000014011          0.0289427035         -0.0013879388
|  7>    O          0.6155937123         -0.0094134827          0.0004514195
|  8>    O         -0.6155923110         -0.0094129806          0.0004513972
|  9> *
| 10> %elprop
| 11>  Polar 1
| 12> end
| 13> 
| 14>                          ****END OF INPUT****
================================================================================

                       ****************************
                       * Single Point Calculation *
                       ****************************

---------------------------------
CARTESIAN COORDINATES (ANGSTROEM)
---------------------------------
  C     -0.000001    0.028943   -0.001388
  O      0.615594   -0.009413    0.000451
  O     -0.615592   -0.009413    0.000451

----------------------------
CARTESIAN COORDINATES (A.U.)
----------------------------
  NO LB      ZA    FRAG     MASS         X           Y           Z
   0 C     6.0000    0    12.011   -0.000003    0.054694   -0.002623
   1 O     8.0000    0    15.999    1.163304   -0.017789    0.000853
   2 O     8.0000    0    15.999   -1.163301   -0.017788    0.000853

--------------------------------
INTERNAL COORDINATES (ANGSTROEM)
--------------------------------
 C      0   0   0     0.000000000000     0.00000000     0.00000000
 O      1   0   0     0.616791637347     0.00000000     0.00000000
 O      1   2   0     0.616787410711   172.86115485     0.00000000

---------------------------
INTERNAL COORDINATES (A.U.)
---------------------------
 C      0   0   0     0.000000000000     0.00000000     0.00000000
 O      1   0   0     1.165567276278     0.00000000     0.00000000
 O      1   2   0     1.165559289094   172.86115485     0.00000000

---------------------
BASIS SET INFORMATION
---------------------
There are 2 groups of distinct atoms

 Group   1 Type C   : 7s4p1d contracted to 3s2p1d pattern {511/31/1}
 Group   2 Type O   : 7s4p1d contracted to 3s2p1d pattern {511/31/1}

Atom   0C    basis set group =>   1
Atom   1O    basis set group =>   2
Atom   2O    basis set group =>   2

-------------------------
BASIS SET IN INPUT FORMAT
-------------------------

 # Basis set for element : C 
 NewGTO C 
 S 5 
   1    1238.4016938000      0.0055173650
   2     186.2900499200      0.0410888285
   3      42.2511763460      0.1822538213
   4      11.6765579320      0.4682845944
   5       3.5930506482      0.4457581734
 S 1 
   1       0.4024514736      1.0000000000
 S 1 
   1       0.1309018267      1.0000000000
 P 3 
   1       9.4680970621      0.0568883320
   2       2.0103545142      0.3129405934
   3       0.5477100471      0.7606501651
 P 1 
   1       0.1526861379      1.0000000000
 D 1 
   1       0.8000000000      1.0000000000
  end;

 # Basis set for element : O 
 NewGTO O 
 S 5 
   1    2266.1767785000     -0.0053893504
   2     340.8701019100     -0.0402347214
   3      77.3631351670     -0.1800818421
   4      21.4796449400     -0.4682885766
   5       6.6589433124     -0.4469261716
 S 1 
   1       0.8097597567      1.0000000000
 S 1 
   1       0.2553077223      1.0000000000
 P 3 
   1      17.7215043170      0.0626302488
   2       3.8635505440      0.3333113849
   3       1.0480920883      0.7414863830
 P 1 
   1       0.2764154441      1.0000000000
 D 1 
   1       1.2000000000      1.0000000000
  end;

---------------------------------
AUXILIARY/J BASIS SET INFORMATION
---------------------------------
There are 2 groups of distinct atoms

 Group   1 Type C   : 12s5p4d2f1g contracted to 6s4p3d1f1g pattern {711111/2111/211/2/1}
 Group   2 Type O   : 12s5p4d2f1g contracted to 6s4p3d1f1g pattern {711111/2111/211/2/1}

Atom   0C    basis set group =>   1
Atom   1O    basis set group =>   2
Atom   2O    basis set group =>   2

-------------------------------------
AUXILIARY/J BASIS SET IN INPUT FORMAT
-------------------------------------

 # Auxiliary/J basis set for element : C 
 NewAuxJGTO C 
 S 7 
   1    1861.0916331000      0.0134602335
   2     642.9939764000      0.0299160374
   3     235.1105725000      0.1008649584
   4      90.7028894000      0.2370970548
   5      36.7794552000      0.3924037254
   6      15.6046273000      0.3195862154
   7       6.8907294000      0.0530104441
 S 1 
   1       3.1478850000     -1.0000000000
 S 1 
   1       1.4777287000      1.0000000000
 S 1 
   1       0.7076466000      1.0000000000
 S 1 
   1       0.3430122000      1.0000000000
 S 1 
   1       0.1669453000      1.0000000000
 P 2 
   1      13.5472892000     -0.6769313712
   2       5.4669419000     -0.3779500978
 P 1 
   1       2.1751721000      1.0000000000
 P 1 
   1       0.8582194000      1.0000000000
 P 1 
   1       0.3376720000      1.0000000000
 D 2 
   1       5.9287253000     -0.3533329857
   2       1.9809209000     -0.7456525731
 D 1 
   1       0.8055417000     -1.0000000000
 D 1 
   1       0.3531244000     -1.0000000000
 F 2 
   1       1.6755626000      0.6311076882
   2       0.5997536000      0.4968166032
 G 1 
   1       1.0024600000     -1.0000000000
  end;

 # Auxiliary/J basis set for element : O 
 NewAuxJGTO O 
 S 7 
   1    2876.8216605000      0.0168151159
   2    1004.7443032000      0.0340137548
   3     369.7579954000      0.1194951309
   4     142.9442404000      0.2664627624
   5      57.8366425000      0.4202764046
   6      24.3864983000      0.2765077335
   7      10.6622662000      0.0057008815
 S 1 
   1       4.8070437000     -1.0000000000
 S 1 
   1       2.2210770000      1.0000000000
 S 1 
   1       1.0447795000      1.0000000000
 S 1 
   1       0.4968425000      1.0000000000
 S 1 
   1       0.2371384000      1.0000000000
 P 2 
   1      64.2613382000     -0.2731534179
   2      16.3006076000     -0.8168011598
 P 1 
   1       4.3550542000      1.0000000000
 P 1 
   1       1.2019554000      1.0000000000
 P 1 
   1       0.3354196000      1.0000000000
 D 2 
   1       9.2146611000     -0.4661230638
   2       2.8435251000     -0.6600908911
 D 1 
   1       0.9955759000     -1.0000000000
 D 1 
   1       0.3649441000     -1.0000000000
 F 2 
   1       2.6420115000      0.5931563945
   2       0.7345613000      0.5931563945
 G 1 
   1       1.3931000000     -1.0000000000
  end;


Checking for AutoStart:
The File: job.gbw exists
Trying to determine its content:
     ... Fine, the file contains calculation information
     ... Fine, the calculation information was read
     ... Fine, the file contains a basis set
     ... Fine, the basis set was read
     ... Fine, the file contains a geometry
     ... Fine, the geometry was read
     ... Fine, the file contains a set of orbitals
     ... Fine, the orbitals can be read
     => possible old guess file was deleted
     => GBW file was renamed to GES file
     => GES file is set as startup file
     => Guess is set to MORead
     ... now leaving AutoStart

------------------------------------------------------------------------------
                             ORCA STARTUP CALCULATIONS
                           -- RI-GTO INTEGRALS CHOSEN --
------------------------------------------------------------------------------
------------------------------------------------------------------------------
                   ___                                                        
                  /   \      - P O W E R E D   B Y -                         
                 /     \                                                     
                 |  |  |   _    _      __       _____    __    __             
                 |  |  |  | |  | |    /  \     |  _  \  |  |  /  |          
                  \  \/   | |  | |   /    \    | | | |  |  | /  /          
                 / \  \   | |__| |  /  /\  \   | |_| |  |  |/  /          
                |  |  |   |  __  | /  /__\  \  |    /   |      \           
                |  |  |   | |  | | |   __   |  |    \   |  |\   \          
                \     /   | |  | | |  |  |  |  | |\  \  |  | \   \       
                 \___/    |_|  |_| |__|  |__|  |_| \__\ |__|  \__/        
                                                                              
                      - O R C A' S   B I G   F R I E N D -                    
                                      &                                       
                       - I N T E G R A L  F E E D E R -                       
                                                                              
 v1 FN, 2020, v2 2021, v3 2022-2024                                           
------------------------------------------------------------------------------


----------------------
SHARK INTEGRAL PACKAGE
----------------------

Number of atoms                             ...      3
Number of basis functions                   ...     42
Number of shells                            ...     18
Maximum angular momentum                    ...      2
Integral batch strategy                     ... SHARK/LIBINT Hybrid
RI-J (if used) integral strategy            ... SPLIT-RIJ (Revised 2003 algorithm where possible)
Printlevel                                  ...      1
Contraction scheme used                     ... SEGMENTED contraction
Prescreening option                         ... SCHWARTZ
   Thresh                                   ... 2.500e-11
   Tcut                                     ... 2.500e-12
   Tpresel                                  ... 2.500e-12 
Coulomb Range Separation                    ... NOT USED
Exchange Range Separation                   ... NOT USED
Multipole approximations                    ... NOT USED
Finite Nucleus Model                        ... NOT USED
CABS basis                                  ... NOT available
Auxiliary Coulomb fitting basis             ... AVAILABLE
   # of basis functions in Aux-J            ...    147
   # of shells in Aux-J                     ...     45
   Maximum angular momentum in Aux-J        ...      4
Auxiliary J/K fitting basis                 ... NOT available
Auxiliary Correlation fitting basis         ... NOT available
Auxiliary 'external' fitting basis          ... NOT available

Checking pre-screening integrals            ... done (  0.0 sec) Dimension = 18
Check shell pair data                       ... done (  0.0 sec)
Shell pair information
Shell pair cut-off parameter TPreSel        ...   2.5e-12
Total number of shell pairs                 ...       171
Shell pairs after pre-screening             ...       171
Total number of primitive shell pairs       ...       705
Primitive shell pairs kept                  ...       656
          la=0 lb=0:     45 shell pairs
          la=1 lb=0:     54 shell pairs
          la=1 lb=1:     21 shell pairs
          la=2 lb=0:     27 shell pairs
          la=2 lb=1:     18 shell pairs
          la=2 lb=2:      6 shell pairs

Calculating one electron integrals          ... done (  0.0 sec)
Calculating RI/J V-Matrix + Cholesky decomp.... done (  0.0 sec)
Calculating Nuclear repulsion               ... done (  0.0 sec) ENN=    109.871509753540 Eh

Diagonalization of the overlap matrix:
Smallest eigenvalue                        ... 1.124e-03
Time for diagonalization                   ...    0.000 sec
Threshold for overlap eigenvalues          ... 1.000e-07
Number of eigenvalues below threshold      ... 0
Time for construction of square roots      ...    0.000 sec
Total time needed                          ...    0.001 sec

-------------------
DFT GRID GENERATION
-------------------

General Integration Accuracy     IntAcc      ... 4.388
Radial Grid Type                 RadialGrid  ... OptM3 with GC (2021)
Angular Grid (max. ang.)         AngularGrid ... 4 (Lebedev-302)
Angular grid pruning method      GridPruning ... 4 (adaptive)
Weight generation scheme         WeightScheme... mBecke (2022)
Basis function cutoff            BFCut       ... 1.0000e-11
Integration weight cutoff        WCut        ... 1.0000e-14
Partially contracted basis set               ... off
Rotationally invariant grid construction     ... off
Angular grids for H and He will be reduced by one unit

Total number of grid points                  ...    18226
Total number of batches                      ...      286
Average number of points per batch           ...       63
Average number of grid points per atom       ...     6075

--------------------
COSX GRID GENERATION
--------------------

GRIDX 1
-------
General Integration Accuracy     IntAcc      ... 3.816
Radial Grid Type                 RadialGrid  ... OptM3 with GC (2021)
Angular Grid (max. ang.)         AngularGrid ... 1 (Lebedev-50)
Angular grid pruning method      GridPruning ... 4 (adaptive)
Weight generation scheme         WeightScheme... mBecke (2022)
Basis function cutoff            BFCut       ... 1.0000e-11
Integration weight cutoff        WCut        ... 1.0000e-14
Partially contracted basis set               ... on
Rotationally invariant grid construction     ... off
Angular grids for H and He will be reduced by one unit

Total number of grid points                  ...     2282
Total number of batches                      ...       19
Average number of points per batch           ...      120
Average number of grid points per atom       ...      761
UseSFitting                                  ... on

GRIDX 2
-------
General Integration Accuracy     IntAcc      ... 4.020
Radial Grid Type                 RadialGrid  ... OptM3 with GC (2021)
Angular Grid (max. ang.)         AngularGrid ... 2 (Lebedev-110)
Angular grid pruning method      GridPruning ... 4 (adaptive)
Weight generation scheme         WeightScheme... mBecke (2022)
Basis function cutoff            BFCut       ... 1.0000e-11
Integration weight cutoff        WCut        ... 1.0000e-14
Partially contracted basis set               ... on
Rotationally invariant grid construction     ... off
Angular grids for H and He will be reduced by one unit

Total number of grid points                  ...     5592
Total number of batches                      ...       45
Average number of points per batch           ...      124
Average number of grid points per atom       ...     1864
UseSFitting                                  ... on

GRIDX 3
-------
General Integration Accuracy     IntAcc      ... 4.338
Radial Grid Type                 RadialGrid  ... OptM3 with GC (2021)
Angular Grid (max. ang.)         AngularGrid ... 3 (Lebedev-194)
Angular grid pruning method      GridPruning ... 4 (adaptive)
Weight generation scheme         WeightScheme... mBecke (2022)
Basis function cutoff            BFCut       ... 1.0000e-11
Integration weight cutoff        WCut        ... 1.0000e-14
Partially contracted basis set               ... on
Rotationally invariant grid construction     ... off
Angular grids for H and He will be reduced by one unit

Total number of grid points                  ...    12500
Total number of batches                      ...      100
Average number of points per batch           ...      125
Average number of grid points per atom       ...     4167
UseSFitting                                  ... on
Initializing property integral containers    ... done (  0.0 sec)

SHARK setup successfully completed in   0.2 seconds

Maximum memory used throughout the entire STARTUP-calculation: 9.4 MB
-------------------------------------------------------------------------------
                                 ORCA GUESS
                   Start orbitals & Density for SCF / CASSCF
-------------------------------------------------------------------------------

------------
SCF SETTINGS
------------
Hamiltonian:
 Density Functional     Method          .... DFT(GTOs)
 Exchange Functional    Exchange        .... B88
   X-Alpha parameter    XAlpha          ....  0.666667
   Becke's b parameter  XBeta           ....  0.004200
 Correlation Functional Correlation     .... LYP
 LDA part of GGA corr.  LDAOpt          .... VWN-5
 Gradients option       PostSCFGGA      .... off
 Hybrid DFT is turned on
   Fraction HF Exchange ScalHFX         ....  0.200000
   Scaling of DF-GGA-X  ScalDFX         ....  0.720000
   Scaling of DF-GGA-C  ScalDFC         ....  0.810000
   Scaling of DF-LDA-C  ScalLDAC        ....  1.000000
   Perturbative correction              ....  0.000000
   NL short-range parameter             ....  4.800000
 RI-approximation to the Coulomb term is turned on
   Number of AuxJ basis functions       .... 147
   RIJ-COSX (HFX calculated with COS-X)).... on


General Settings:
 Integral files         IntName         .... job
 Hartree-Fock type      HFTyp           .... RHF
 Total Charge           Charge          ....    0
 Multiplicity           Mult            ....    1
 Number of Electrons    NEL             ....   22
 Basis Dimension        Dim             ....   42
 Nuclear Repulsion      ENuc            ....    109.8715097535 Eh

Convergence Acceleration:
 AO-DIIS                CNVDIIS         .... on
   Start iteration      DIISMaxIt       ....    12
   Startup error        DIISStart       ....  0.200000
   # of expansion vecs  DIISMaxEq       ....     5
   Bias factor          DIISBfac        ....   1.050
   Max. coefficient     DIISMaxC        ....  10.000
 MO-DIIS                CNVKDIIS        .... off
 Trust-Rad. Augm. Hess. CNVTRAH         .... auto
   Auto Start mean grad. ratio tolernc. ....  1.125000
   Auto Start start iteration           ....     1
   Auto Start num. interpolation iter.  ....    10
   Max. Number of Micro iterations      ....    24
   Max. Number of Macro iterations      .... Maxiter - #DIIS iter
   Number of Davidson start vectors     ....     2
   Converg. threshold    (grad. norm)   ....   1.000e-05
   Grad. Scal. Fac. for Micro threshold ....   0.100
   Minimum threshold for Micro iter.    ....   1.000e-02
   NR start threshold (gradient norm)   ....   1.000e-04
   Initial trust radius                 ....   0.400
   Minimum AH scaling param. (alpha)    ....   1.000
   Maximum AH scaling param. (alpha)    .... 1000.000
   Quad. conv. algorithm                .... NR
   White noise on init. David. guess    .... on
   Maximum white noise                  ....   0.010
   Pseudo random numbers                .... off
   Inactive MOs                         .... canonical
   Orbital update algorithm             .... Taylor
   Preconditioner                       .... Diag
   Full preconditioner red. dimension   ....   250
 SOSCF                  CNVSOSCF        .... on
   Start iteration      SOSCFMaxIt      ....   150
   Startup grad/error   SOSCFStart      ....  0.003300
   Hessian update       SOSCFHessUp     .... L-BFGS
 Level Shifting         CNVShift        .... on
   Level shift para.    LevelShift      ....    0.2500
   Turn off err/grad.   ShiftErr        ....    0.0010
 Zerner damping         CNVZerner       .... off
 Static damping         CNVDamp         .... on
   Fraction old density DampFac         ....    0.7000
   Max. Damping (<1)    DampMax         ....    0.9800
   Min. Damping (>=0)   DampMin         ....    0.0000
   Turn off err/grad.   DampErr         ....    0.1000

SCF Procedure:
 Maximum # iterations   MaxIter         ....   125
 SCF integral mode      SCFMode         .... Direct
   Integral package                     .... SHARK and LIBINT hybrid scheme
 Reset frequency        DirectResetFreq ....    20
 Integral Threshold     Thresh          ....  2.500e-11 Eh
 Primitive CutOff       TCut            ....  2.500e-12 Eh

Convergence Tolerance:
 Convergence Check Mode ConvCheckMode   .... Total+1el-Energy
 Convergence forced     ConvForced      .... 0
 Energy Change          TolE            ....  1.000e-08 Eh
 1-El. energy change                    ....  1.000e-05 Eh
 Orbital Gradient       TolG            ....  1.000e-05
 Orbital Rotation angle TolX            ....  1.000e-05
 DIIS Error             TolErr          ....  5.000e-07

---------------------
INITIAL GUESS: MOREAD
---------------------
Guess MOs are being read from file: job.ges
Input Geometry matches current geometry (good)
Input basis set matches current basis set (good)
Occupation numbers will be reassigned to an Aufbau configuration
MOs were renormalized
MOs were reorthogonalized (Cholesky)
                      ------------------
                      INITIAL GUESS DONE (   0.0 sec)
                      ------------------
----------------------
INITIAL GUESS ORBITALS
----------------------
                      0         1         2         3         4         5   
                 -19.20146 -19.20119 -10.73324  -1.27963  -1.19586  -0.96912
                   2.00000   2.00000   2.00000   2.00000   2.00000   2.00000
                  --------  --------  --------  --------  --------  --------
  0C   1s        -0.003210 -0.000056  0.971634  0.000008 -0.376039 -0.000000
  0C   2s         0.041688  0.000732 -0.094953  0.000015  0.000715 -0.000001
  0C   3s        -0.003659 -0.000064 -0.007341 -0.000002  0.056543 -0.000000
  0C   1pz        0.000056  0.000001  0.000005 -0.000000  0.002886 -0.517689
  0C   1px       -0.000119  0.006803 -0.000001 -0.812778 -0.000021 -0.000000
  0C   1py       -0.001176 -0.000021 -0.000103  0.000002 -0.060187 -0.024823
  0C   2pz        0.000001  0.000000  0.000055 -0.000000  0.000958 -0.125168
  0C   2px        0.000318 -0.018103  0.000000 -0.065443 -0.000002  0.000000
  0C   2py       -0.000027 -0.000000 -0.001154  0.000001 -0.019971 -0.006002
  0C   1dz2       0.003602  0.000063  0.006983 -0.000003  0.043968 -0.000406
  0C   1dxz       0.000001 -0.000070 -0.000000 -0.001644 -0.000000 -0.000001
  0C   1dyz       0.000000  0.000000 -0.000011  0.000000 -0.000074  0.004874
  0C   1dx2y2    -0.006236 -0.000109 -0.012326  0.000005 -0.077695 -0.000234
  0C   1dxy      -0.000026  0.001454  0.000000  0.034287  0.000001 -0.000000
  1O   1s         0.684885  0.709284  0.029053 -0.238314  0.202506  0.000000
  1O   2s        -0.030544 -0.040773  0.052768 -0.162352  0.495111  0.000001
  1O   3s        -0.004911  0.034151  0.024715  0.219789  0.155912  0.000000
  1O   1pz       -0.000001  0.000071 -0.000137  0.002218  0.000888 -0.364358
  1O   1px        0.008999  0.010123 -0.034183  0.256940 -0.154228  0.000000
  1O   1py        0.000013 -0.001483  0.002867 -0.046243 -0.018519 -0.017471
  1O   2pz        0.000022 -0.000003 -0.000124  0.000011 -0.000889  0.027013
  1O   2px        0.007835 -0.001732 -0.011733 -0.124885 -0.038330 -0.000000
  1O   2py       -0.000453  0.000063  0.002594 -0.000231  0.018535  0.001295
  1O   1dz2       0.001106  0.002617 -0.003685  0.030530  0.008203  0.000244
  1O   1dxz      -0.000003 -0.000036  0.000081 -0.000653 -0.000146  0.040892
  1O   1dyz      -0.000003  0.000007 -0.000005  0.000123  0.000009 -0.002927
  1O   1dx2y2    -0.001971 -0.004392  0.006282 -0.050317 -0.014016  0.000141
  1O   1dxy       0.000072  0.000754 -0.001690  0.013613  0.003054  0.001961
  2O   1s         0.709359 -0.684808  0.029054  0.238305  0.202520  0.000000
  2O   2s        -0.031956  0.039676  0.052768  0.162312  0.495122  0.000001
  2O   3s        -0.003710 -0.034302  0.024714 -0.219800  0.155902  0.000000
  2O   1pz        0.000002 -0.000071 -0.000137 -0.002218  0.000888 -0.364366
  2O   1px       -0.009349  0.009801  0.034183  0.256930  0.154238 -0.000000
  2O   1py       -0.000039  0.001483  0.002867  0.046244 -0.018518 -0.017471
  2O   2pz        0.000022  0.000004 -0.000124 -0.000011 -0.000889  0.027012
  2O   2px       -0.007770 -0.002006  0.011733 -0.124889  0.038323  0.000000
  2O   2py       -0.000451 -0.000079  0.002594  0.000229  0.018535  0.001295
  2O   1dz2       0.001197 -0.002577 -0.003685 -0.030530  0.008202  0.000244
  2O   1dxz       0.000005 -0.000036 -0.000081 -0.000653  0.000146 -0.040894
  2O   1dyz      -0.000002 -0.000007 -0.000005 -0.000123  0.000009 -0.002927
  2O   1dx2y2    -0.002124  0.004320  0.006282  0.050318 -0.014015  0.000141
  2O   1dxy      -0.000098  0.000751  0.001690  0.013612 -0.003054 -0.001961
                      6         7         8         9        10        11   
                  -0.96763  -0.51951  -0.37123  -0.36756  -0.35755   0.15188
                   2.00000   2.00000   2.00000   2.00000   2.00000   0.00000
                  --------  --------  --------  --------  --------  --------
  0C   1s         0.030696 -0.000002 -0.000000  0.000003  0.284971 -0.060241
  0C   2s         0.132598  0.000007 -0.000000  0.000010  0.690000 -0.710460
  0C   3s         0.004256  0.000000 -0.000000  0.000003  0.240617 -3.209930
  0C   1pz        0.024717  0.000000 -0.000002 -0.000000  0.000066 -0.000093
  0C   1px       -0.000001 -0.387370 -0.000001 -0.051385  0.000004 -0.000001
  0C   1py       -0.515495 -0.000000 -0.000000  0.000002 -0.001373  0.001949
  0C   2pz        0.005805 -0.000000 -0.000002 -0.000000  0.000510  0.001870
  0C   2px       -0.000000  0.118348  0.000000  0.016858 -0.000001  0.000006
  0C   2py       -0.121064  0.000000 -0.000000  0.000001 -0.010634 -0.038992
  0C   1dz2      -0.027602 -0.000001  0.000000 -0.000001 -0.079149 -0.042385
  0C   1dxz       0.000000 -0.000927 -0.014955 -0.000855  0.000000 -0.000000
  0C   1dyz      -0.000462  0.000000  0.000000  0.000000  0.000012  0.000022
  0C   1dx2y2     0.038196  0.000002 -0.000000  0.000002  0.137341  0.073861
  0C   1dxy      -0.000001  0.019331 -0.000717  0.017827 -0.000000  0.000000
  1O   1s        -0.015743  0.082987 -0.000000 -0.009993  0.056256  0.087310
  1O   2s        -0.114007  0.300023 -0.000000 -0.007760 -0.133380  0.040547
  1O   3s        -0.055675  0.359470  0.000000  0.006164 -0.057903  1.891938
  1O   1pz        0.017500  0.003159 -0.557078 -0.026402  0.001979 -0.000924
  1O   1px       -0.009809  0.423093  0.000001  0.081230  0.503215  0.034883
  1O   1py       -0.364980 -0.065876 -0.026705  0.550756 -0.041259  0.019277
  1O   2pz       -0.001028  0.001304 -0.341746 -0.016342  0.001875 -0.002762
  1O   2px        0.016050  0.072396  0.000000  0.022751  0.393657 -0.254728
  1O   2py        0.021449 -0.027184 -0.016382  0.340902 -0.039093  0.057606
  1O   1dz2      -0.002157  0.025097  0.000460  0.001207 -0.003289 -0.010443
  1O   1dxz      -0.001972 -0.000582  0.055516  0.002569 -0.000171  0.000064
  1O   1dyz       0.000290  0.000102 -0.005524 -0.000518  0.000029  0.000011
  1O   1dx2y2     0.009760 -0.041350  0.000265 -0.012864  0.006304  0.018323
  1O   1dxy       0.041125  0.012131  0.002661 -0.053586  0.003569 -0.001325
  2O   1s        -0.015743 -0.082985  0.000000  0.009995  0.056255  0.087311
  2O   2s        -0.114008 -0.300029  0.000000  0.007756 -0.133381  0.040547
  2O   3s        -0.055676 -0.359468 -0.000000 -0.006166 -0.057905  1.891959
  2O   1pz        0.017501 -0.003159  0.557074  0.026401  0.001978 -0.000924
  2O   1px        0.009810  0.423093  0.000002  0.081216 -0.503219 -0.034883
  2O   1py       -0.364988  0.065876  0.026705 -0.550753 -0.041245  0.019277
  2O   2pz       -0.001028 -0.001304  0.341743  0.016342  0.001874 -0.002762
  2O   2px       -0.016050  0.072395  0.000000  0.022740 -0.393659  0.254730
  2O   2py        0.021448  0.027183  0.016382 -0.340900 -0.039084  0.057606
  2O   1dz2      -0.002157 -0.025097 -0.000460 -0.001207 -0.003290 -0.010443
  2O   1dxz       0.001972 -0.000582  0.055516  0.002569  0.000171 -0.000064
  2O   1dyz       0.000290 -0.000102  0.005524  0.000518  0.000029  0.000011
  2O   1dx2y2     0.009760  0.041349 -0.000265  0.012864  0.006305  0.018323
  2O   1dxy      -0.041127  0.012131  0.002661 -0.053586 -0.003568  0.001325
                     12        13        14        15        16        17   
                   0.22618   0.22688   0.31573   0.71329   0.79417   0.79933
                   0.00000   0.00000   0.00000   0.00000   0.00000   0.00000
                  --------  --------  --------  --------  --------  --------
  0C   1s         0.000000 -0.007495 -0.000001 -0.220283  0.000001  0.000025
  0C   2s         0.000004 -0.063407 -0.000005  4.076527 -0.000013 -0.000532
  0C   3s        -0.000018  0.299357 -0.000012  1.585848 -0.000003 -0.000117
  0C   1pz       -0.231261 -0.011117  0.000000  0.024224  1.142943  0.000010
  0C   1px       -0.000000  0.000000 -0.096493 -0.000004  0.000000  0.276109
  0C   1py       -0.011104  0.231537 -0.000000 -0.505131  0.054805 -0.000200
  0C   2pz        1.693829  0.081726  0.000000  0.028665  1.555208  0.000014
  0C   2px        0.000000  0.000002 -3.240539  0.000008  0.000000 -0.288546
  0C   2py        0.081329 -1.702120 -0.000001 -0.597736  0.074573 -0.000286
  0C   1dz2      -0.000114  0.022352 -0.000000 -0.020210 -0.003805  0.000015
  0C   1dxz      -0.000001 -0.000000  0.000665 -0.000000 -0.000033 -0.018257
  0C   1dyz       0.001348  0.000130  0.000000  0.001354  0.045710  0.000001
  0C   1dx2y2    -0.000063 -0.036018  0.000000  0.063176 -0.002197 -0.000009
  0C   1dxy      -0.000000  0.000001 -0.013877  0.000001 -0.000002  0.380717
  1O   1s         0.000000 -0.007320  0.062329  0.020159 -0.000000 -0.005356
  1O   2s        -0.000004  0.059214 -0.003292 -0.149055  0.000001  0.029943
  1O   3s         0.000012 -0.197057  2.874466 -2.351053  0.000006 -1.303406
  1O   1pz       -0.121328 -0.005915 -0.000769 -0.005111 -0.180535 -0.015234
  1O   1px        0.000001 -0.018119  0.155086 -0.289744  0.000001 -0.040369
  1O   1py       -0.005826  0.123199  0.016044  0.106587 -0.008657  0.317670
  1O   2pz       -0.442561 -0.021365 -0.003039 -0.020917 -1.413193  0.049730
  1O   2px        0.000001 -0.011479  0.021245  1.531826 -0.000004  1.197637
  1O   2py       -0.021249  0.444974  0.063363  0.436175 -0.067763 -1.037022
  1O   1dz2       0.000018  0.003449 -0.001866  0.024585 -0.000806  0.009601
  1O   1dxz       0.030427  0.001482  0.000303 -0.001492 -0.073403 -0.002419
  1O   1dyz      -0.000224 -0.000029 -0.000059  0.000297  0.009680  0.000749
  1O   1dx2y2     0.000011 -0.006575  0.001999 -0.036408 -0.000465 -0.001037
  1O   1dxy       0.001461 -0.030862 -0.006323  0.031110 -0.003520  0.050445
  2O   1s         0.000000 -0.007320 -0.062328  0.020160 -0.000000  0.005355
  2O   2s        -0.000004  0.059215  0.003292 -0.149061  0.000001 -0.029858
  2O   3s         0.000012 -0.197053 -2.874447 -2.351084  0.000006  1.303891
  2O   1pz       -0.121328 -0.005915  0.000769 -0.005111 -0.180480  0.015231
  2O   1px       -0.000001  0.018118  0.155088  0.289743 -0.000001 -0.040409
  2O   1py       -0.005826  0.123199 -0.016044  0.106585 -0.008654 -0.317608
  2O   2pz       -0.442559 -0.021365  0.003038 -0.020918 -1.413386 -0.049756
  2O   2px       -0.000001  0.011480  0.021255 -1.531845  0.000004  1.197959
  2O   2py       -0.021249  0.444972 -0.063361  0.436187 -0.067772  1.037560
  2O   1dz2       0.000018  0.003449  0.001866  0.024586 -0.000806 -0.009604
  2O   1dxz      -0.030428 -0.001482  0.000303  0.001492  0.073395 -0.002418
  2O   1dyz      -0.000224 -0.000029  0.000059  0.000297  0.009679 -0.000749
  2O   1dx2y2     0.000011 -0.006575 -0.001999 -0.036409 -0.000465  0.001050
  2O   1dxy      -0.001461  0.030863 -0.006323 -0.031110  0.003519  0.050421
                     18        19        20        21        22        23   
                   0.80390   0.80859   0.85156   1.22275   1.32501   1.33096
                   0.00000   0.00000   0.00000   0.00000   0.00000   0.00000
                  --------  --------  --------  --------  --------  --------
  0C   1s         0.120684  0.000000 -0.000001  0.045096 -0.013179  0.000000
  0C   2s        -2.638082 -0.000000  0.000024 -0.257630  0.352117 -0.000000
  0C   3s        -0.565689 -0.000000  0.000004 -3.136363  0.792005 -0.000003
  0C   1pz        0.048678 -0.000091 -0.000001 -0.001709 -0.010846 -0.233569
  0C   1px       -0.000058 -0.000000 -0.492390 -0.000004  0.000002  0.000000
  0C   1py       -1.015198 -0.000004  0.000013  0.035628  0.226119 -0.011202
  0C   2pz        0.068310 -0.000118 -0.000001  0.008093  0.073424  1.488746
  0C   2px        0.000067  0.000000  0.903007  0.000005 -0.000001 -0.000000
  0C   2py       -1.424628 -0.000006  0.000016 -0.168756 -1.530880  0.071401
  0C   1dz2       0.078514  0.000000 -0.000000 -0.265100 -0.130489  0.030344
  0C   1dxz       0.000004 -0.434787 -0.009987 -0.000000 -0.000000 -0.000001
  0C   1dyz       0.004169 -0.000004 -0.000000 -0.002436 -0.028979 -0.364444
  0C   1dx2y2    -0.049252  0.000000 -0.000001  0.408476 -0.376898  0.017520
  0C   1dxy      -0.000075 -0.020850  0.208257  0.000000  0.000001 -0.000000
  1O   1s         0.001385 -0.000000 -0.013391 -0.212709  0.020471 -0.000000
  1O   2s         0.222528 -0.000000 -0.049027 -2.026506  0.499066 -0.000002
  1O   3s         1.186307  0.000000  2.332382  3.269701 -0.931132  0.000003
  1O   1pz       -0.007568 -0.356199 -0.007853  0.007410  0.033865  0.710759
  1O   1px        0.091785  0.000000  0.115130 -0.120774  0.034725 -0.000000
  1O   1py        0.157825 -0.017081  0.163761 -0.154516 -0.706065  0.034088
  1O   2pz       -0.064835  1.153907  0.024616 -0.010457 -0.056850 -1.176419
  1O   2px       -0.788853 -0.000000 -2.459528 -0.145976  0.156594 -0.000000
  1O   2py        1.352147  0.055336 -0.513311  0.218049  1.185323 -0.056422
  1O   1dz2      -0.007859 -0.000728 -0.004122 -0.015627 -0.022775  0.004083
  1O   1dxz      -0.003029 -0.055435 -0.001064  0.000254  0.004932  0.100454
  1O   1dyz       0.000858  0.008748  0.000368 -0.000099 -0.003780 -0.049032
  1O   1dx2y2     0.031471 -0.000420  0.014794  0.025009 -0.039189  0.002357
  1O   1dxy       0.063173 -0.002658  0.022193 -0.005292 -0.102835  0.004818
  2O   1s         0.001383  0.000000  0.013392 -0.212710  0.020471 -0.000000
  2O   2s         0.222545  0.000000  0.049025 -2.026517  0.499070 -0.000002
  2O   3s         1.185757 -0.000000 -2.332405  3.269731 -0.931143  0.000003
  2O   1pz       -0.007573  0.356227  0.007853  0.007410  0.033865  0.710757
  2O   1px       -0.091766  0.000000  0.115132  0.120777 -0.034727  0.000000
  2O   1py        0.157948  0.017083 -0.163765 -0.154515 -0.706064  0.034088
  2O   2pz       -0.064817 -1.153688 -0.024614 -0.010457 -0.056851 -1.176421
  2O   2px        0.788330 -0.000000 -2.459542  0.145976 -0.156597  0.000000
  2O   2py        1.351756 -0.055325  0.513280  0.218049  1.185325 -0.056422
  2O   1dz2      -0.007855  0.000728  0.004122 -0.015628 -0.022775  0.004083
  2O   1dxz       0.003030 -0.055447 -0.001064 -0.000254 -0.004932 -0.100454
  2O   1dyz       0.000859 -0.008750 -0.000368 -0.000099 -0.003780 -0.049032
  2O   1dx2y2     0.031470  0.000421 -0.014795  0.025009 -0.039189  0.002357
  2O   1dxy      -0.063193 -0.002659  0.022195  0.005292  0.102835 -0.004818
                     24        25        26        27        28        29   
                   1.37772   1.38006   1.59078   2.04964   2.56033   2.56046
                   0.00000   0.00000   0.00000   0.00000   0.00000   0.00000
                  --------  --------  --------  --------  --------  --------
  0C   1s        -0.006562  0.000001  0.000001  0.033937 -0.000000  0.000000
  0C   2s         0.255667 -0.000022 -0.000002 -6.679121  0.000001 -0.000000
  0C   3s         0.208936 -0.000018 -0.000007 -1.633511  0.000000 -0.000000
  0C   1pz       -0.008325 -0.203377 -0.000000 -0.007610  0.000000 -0.000001
  0C   1px        0.000001  0.000000 -0.088375 -0.000003  0.006737 -0.000038
  0C   1py        0.173272 -0.009767  0.000000  0.158694 -0.000001 -0.000000
  0C   2pz        0.016540  0.455766 -0.000000  0.002663  0.000000 -0.000000
  0C   2px       -0.000000 -0.000000 -3.282687 -0.000005 -0.001224  0.000006
  0C   2py       -0.344287  0.021888  0.000002 -0.055520 -0.000000 -0.000000
  0C   1dz2       0.736513 -0.064082 -0.000000 -0.300780 -0.000002 -0.000000
  0C   1dxz      -0.000000 -0.000001  0.002048 -0.000000 -0.006684  0.154859
  0C   1dyz       0.076525  0.769054 -0.000000  0.000660 -0.000000  0.000002
  0C   1dx2y2     0.315143 -0.036989  0.000000  0.534691 -0.000001 -0.000000
  0C   1dxy       0.000001 -0.000000 -0.042704  0.000001  0.157273  0.006554
  1O   1s        -0.002216  0.000000 -0.213831  0.160940 -0.002155  0.000012
  1O   2s         0.120588 -0.000010 -1.566711  0.553665  0.007296 -0.000041
  1O   3s        -0.298669  0.000025  5.250687  3.344518 -0.020331  0.000114
  1O   1pz        0.014009  0.358223 -0.000625  0.004738  0.004615 -0.107331
  1O   1px        0.015156 -0.000001 -0.381891 -0.775633 -0.001401  0.000008
  1O   1py       -0.291603  0.017203  0.013039 -0.098800 -0.108648 -0.004544
  1O   2pz       -0.012891 -0.365209 -0.005004 -0.008652  0.000089 -0.001924
  1O   2px        0.084315 -0.000007 -0.091484 -1.271952  0.010977 -0.000061
  1O   2py        0.268309 -0.017538  0.104340  0.180411 -0.002077 -0.000081
  1O   1dz2       0.119035 -0.010681  0.011406 -0.017007 -0.614023 -0.055594
  1O   1dxz       0.002919  0.070819  0.000369  0.003516  0.000345 -0.007496
  1O   1dyz       0.012645  0.128184 -0.000046  0.000184 -0.064173  0.708958
  1O   1dx2y2     0.056699 -0.006166 -0.020722  0.033293 -0.353942 -0.032100
  1O   1dxy      -0.060760  0.003401 -0.007686 -0.073326 -0.008064 -0.000315
  2O   1s        -0.002216  0.000000  0.213829  0.160940  0.002155 -0.000012
  2O   2s         0.120589 -0.000010  1.566700  0.553671 -0.007297  0.000041
  2O   3s        -0.298674  0.000025 -5.250670  3.344566  0.020330 -0.000114
  2O   1pz        0.014009  0.358221  0.000625  0.004738 -0.004615  0.107332
  2O   1px       -0.015156  0.000001 -0.381895  0.775633 -0.001401  0.000008
  2O   1py       -0.291602  0.017203 -0.013038 -0.098799  0.108649  0.004544
  2O   2pz       -0.012891 -0.365209  0.005004 -0.008652 -0.000089  0.001924
  2O   2px       -0.084317  0.000007 -0.091469  1.271981  0.010977 -0.000061
  2O   2py        0.268309 -0.017538 -0.104340  0.180412  0.002078  0.000081
  2O   1dz2       0.119035 -0.010681 -0.011406 -0.017010  0.614022  0.055594
  2O   1dxz      -0.002919 -0.070819  0.000369 -0.003516  0.000345 -0.007497
  2O   1dyz       0.012645  0.128184  0.000046  0.000184  0.064173 -0.708957
  2O   1dx2y2     0.056699 -0.006166  0.020721  0.033297  0.353941  0.032100
  2O   1dxy       0.060761 -0.003401 -0.007686  0.073327 -0.008065 -0.000315
                     30        31        32        33        34        35   
                   2.95685   2.96382   3.27737   3.30902   3.55252   3.55253
                   0.00000   0.00000   0.00000   0.00000   0.00000   0.00000
                  --------  --------  --------  --------  --------  --------
  0C   1s         0.000001  0.000000  0.440638 -0.000077  0.000013  0.000542
  0C   2s         0.000013 -0.000000  9.225263 -0.001489 -0.000136 -0.005970
  0C   3s         0.000004  0.000000  1.231300 -0.000193  0.000354  0.014534
  0C   1pz        0.000000  0.000000  0.007287 -0.000001 -0.093041  0.006718
  0C   1px       -0.086727 -0.000000 -0.000023 -0.098456  0.000000  0.000000
  0C   1py       -0.000000  0.000000 -0.151945  0.000025 -0.006727 -0.092785
  0C   2pz        0.000000  0.000001 -0.000399  0.000000 -0.020309  0.001476
  0C   2px        0.034725  0.000000  0.000020  0.093472  0.000000  0.000000
  0C   2py       -0.000001  0.000000  0.008317 -0.000001 -0.001473 -0.020444
  0C   1dz2       0.000000  0.000000 -0.712684  0.000118  0.108089  0.902816
  0C   1dxz       0.017842  0.373653 -0.000002 -0.011134 -0.000001  0.000000
  0C   1dyz      -0.000000 -0.000000  0.000138 -0.000000 -1.031628  0.124548
  0C   1dx2y2    -0.000001  0.000000  1.237253 -0.000206  0.061880  0.499571
  0C   1dxy      -0.372097  0.017915  0.000037  0.232178 -0.000000 -0.000001
  1O   1s         0.012181  0.000000  0.002952  0.007555 -0.000037 -0.001523
  1O   2s         0.076548  0.000000 -2.565200  0.462902  0.000441  0.018261
  1O   3s        -0.140475 -0.000001 -3.098514 -2.453563 -0.000391 -0.015974
  1O   1pz       -0.015331 -0.318008  0.004805  0.006262 -0.024050  0.001691
  1O   1px       -0.024535 -0.000000  0.672690  0.057140  0.000013  0.000486
  1O   1py        0.319739 -0.015248 -0.100200 -0.130579 -0.001715 -0.023019
  1O   2pz        0.011059  0.231340  0.006835  0.001680  0.045195 -0.003251
  1O   2px        0.072216  0.000000  1.454255  1.527620  0.000129  0.005242
  1O   2py       -0.230653  0.011092 -0.142532 -0.035036  0.003261  0.044808
  1O   1dz2      -0.031814  0.005840  0.357580  0.508752 -0.096025 -0.793524
  1O   1dxz      -0.032916 -0.690168 -0.004172 -0.001202 -0.013647  0.000967
  1O   1dyz      -0.006860 -0.070157  0.000458  0.001601  0.918974 -0.110950
  1O   1dx2y2    -0.087633  0.003372 -0.609802 -0.847884 -0.055574 -0.463600
  1O   1dxy       0.686495 -0.033092  0.087004  0.025057 -0.000978 -0.013231
  2O   1s        -0.012181 -0.000000  0.002948 -0.007556 -0.000037 -0.001523
  2O   2s        -0.076548 -0.000000 -2.565384 -0.462059  0.000441  0.018261
  2O   3s         0.140461  0.000001 -3.097723  2.454548 -0.000391 -0.015973
  2O   1pz        0.015331  0.318010  0.004803 -0.006264 -0.024051  0.001691
  2O   1px       -0.024536 -0.000000 -0.672669  0.057358 -0.000013 -0.000486
  2O   1py       -0.319741  0.015248 -0.100158  0.130613 -0.001715 -0.023020
  2O   2pz       -0.011059 -0.231343  0.006835 -0.001682  0.045195 -0.003251
  2O   2px        0.072210  0.000000 -1.453758  1.528086 -0.000129 -0.005242
  2O   2py        0.230654 -0.011093 -0.142522  0.035080  0.003261  0.044808
  2O   1dz2       0.031816 -0.005840  0.357413 -0.508870 -0.096026 -0.793528
  2O   1dxz      -0.032916 -0.690169  0.004172 -0.001203  0.013648 -0.000967
  2O   1dyz       0.006860  0.070157  0.000458 -0.001601  0.918979 -0.110950
  2O   1dx2y2     0.087631 -0.003372 -0.609523  0.848086 -0.055574 -0.463602
  2O   1dxy       0.686496 -0.033092 -0.086998  0.025083  0.000978  0.013231
                     36        37        38        39        40        41   
                   4.13617   4.14836   4.49069   4.49070   6.33694   7.11252
                   0.00000   0.00000   0.00000   0.00000   0.00000   0.00000
                  --------  --------  --------  --------  --------  --------
  0C   1s        -0.000000 -0.000000  0.000013  0.020564  0.621342  0.000008
  0C   2s         0.000022  0.000000 -0.000349 -0.554229-20.709382 -0.000603
  0C   3s         0.000002 -0.000000  0.000106  0.168039 -0.373005 -0.000023
  0C   1pz        0.000001  0.000011  2.508631  0.118467 -0.019713 -0.000001
  0C   1px        0.069127 -0.000003  0.000000  0.000003 -0.000056  5.654589
  0C   1py       -0.000011  0.000001  0.118718 -2.503465  0.411073  0.000010
  0C   2pz        0.000000  0.000002  0.763421  0.036423  0.004610  0.000000
  0C   2px        0.219943 -0.000008  0.000000  0.000002  0.000004  0.039435
  0C   2py       -0.000002  0.000000  0.036123 -0.769587 -0.096128 -0.000002
  0C   1dz2      -0.000002 -0.000000  0.016498  0.053352  3.165366  0.000075
  0C   1dxz      -0.127978 -2.682760 -0.000005 -0.000000 -0.000000  0.014237
  0C   1dyz       0.000000  0.000002 -0.197771 -0.018885  0.000360 -0.000000
  0C   1dx2y2     0.000007 -0.000000  0.009198 -0.487947 -5.475078 -0.000130
  0C   1dxy       2.666659 -0.128750 -0.000000  0.000006  0.000010 -0.296889
  1O   1s        -0.017111  0.000001 -0.000016 -0.024564 -0.130283 -0.176697
  1O   2s         0.230458 -0.000008  0.000245  0.389168  9.566547 -3.787275
  1O   3s        -0.429825  0.000016 -0.000058 -0.091782  3.587526 -2.236370
  1O   1pz        0.071119  1.499728 -0.536956 -0.026436 -0.016771  0.001363
  1O   1px       -0.057740  0.000002  0.000024  0.037487 -1.672826  1.771853
  1O   1py       -1.481893  0.071974 -0.025397  0.558343  0.349732 -0.028421
  1O   2pz        0.030944  0.636477 -1.049507 -0.049913 -0.013836  0.002073
  1O   2px        0.025179 -0.000001  0.000006  0.010049 -1.829990  1.246385
  1O   2py       -0.644792  0.030546 -0.049662  1.054681  0.288530 -0.043221
  1O   1dz2       0.063829 -0.012026 -0.001312  0.078878  0.287214  0.268036
  1O   1dxz      -0.044687 -0.932057  1.159354  0.054615  0.000028 -0.002790
  1O   1dyz       0.013818  0.144429  0.016349  0.001472 -0.001155 -0.000433
  1O   1dx2y2     0.176811 -0.006948 -0.000853 -0.105765 -0.521494 -0.473262
  1O   1dxy       0.931141 -0.044731  0.054867 -1.154172 -0.000582  0.058189
  2O   1s         0.017112 -0.000001 -0.000016 -0.024564 -0.130294  0.176688
  2O   2s        -0.230475  0.000008  0.000245  0.389170  9.566490  3.787787
  2O   3s         0.429814 -0.000016 -0.000058 -0.091774  3.587524  2.236618
  2O   1pz       -0.071120 -1.499739 -0.536971 -0.026436 -0.016771 -0.001364
  2O   1px       -0.057741  0.000002 -0.000024 -0.037489  1.672733  1.771941
  2O   1py        1.481904 -0.071975 -0.025397  0.558358  0.349733  0.028437
  2O   2pz       -0.030945 -0.636483 -1.049517 -0.049914 -0.013836 -0.002073
  2O   2px        0.025173 -0.000001 -0.000006 -0.010046  1.829963  1.246497
  2O   2py        0.644797 -0.030546 -0.049662  1.054691  0.288530  0.043237
  2O   1dz2      -0.063831  0.012026 -0.001312  0.078878  0.287225 -0.268016
  2O   1dxz      -0.044687 -0.932045 -1.159364 -0.054616 -0.000028 -0.002790
  2O   1dyz      -0.013818 -0.144430  0.016349  0.001472 -0.001155  0.000433
  2O   1dx2y2    -0.176810  0.006949 -0.000853 -0.105764 -0.521514  0.473227
  2O   1dxy       0.931129 -0.044730 -0.054867  1.154183  0.000577  0.058189
             **** ENERGY FILE WAS UPDATED (job.en.tmp) ****
Finished Guess after   0.0 sec
Maximum memory used throughout the entire GUESS-calculation: 5.8 MB

-------------------------------------------------------------------------------------------
                                      ORCA LEAN-SCF
                              memory conserving SCF solver
-------------------------------------------------------------------------------------------

----------------------------------------D-I-I-S--------------------------------------------
Iteration    Energy (Eh)           Delta-E    RMSDP     MaxDP     DIISErr   Damp  Time(sec)
-------------------------------------------------------------------------------------------
               ***  Starting incremental Fock matrix formation  ***
                              *** Initializing SOSCF ***
---------------------------------------S-O-S-C-F--------------------------------------
Iteration    Energy (Eh)           Delta-E    RMSDP     MaxDP     MaxGrad    Time(sec)
--------------------------------------------------------------------------------------
    1    -182.8074590011298142     0.00e+00  2.03e-07  1.44e-06  1.06e-07     0.2

                         ----------------------------
                         !        ITERATION     0   !
                         ----------------------------
   Total Energy        :    -182.807459001130 Eh
   Energy Change       :     182.807459001130 Eh
   MAX-DP              :       0.000001443196
   RMS-DP              :       0.000000202644
   Orbital gradient    :       0.000000106436
   Orbital Rotation    :       0.000000106436
   alpha HOMO          :      -0.3576 Eh
   alpha LUMO          :       0.1519 Eh
   Int. Num. El.       :    21.99999225 (UP=   10.99999612 DN=   10.99999612)
   Exchange            :   -18.84070384 Eh
   Correlation         :    -1.00155541 Eh

               *** Restarting incremental Fock matrix formation ***
    2    -182.8074590011360669    -6.25e-12  1.18e-07  7.78e-07  3.35e-07     0.2
                  *** Gradient check signals convergence ***

                         ----------------------------
                         !        ITERATION     1   !
                         ----------------------------
   Total Energy        :    -182.807459001136 Eh
   Energy Change       :       0.000000000006 Eh
   MAX-DP              :       0.000000777984
   RMS-DP              :       0.000000117514
   Orbital gradient    :       0.000000334997
   Orbital Rotation    :       0.000000283940
   alpha HOMO          :      -0.3576 Eh
   alpha LUMO          :       0.1519 Eh
   Int. Num. El.       :    21.99999225 (UP=   10.99999612 DN=   10.99999612)
   Exchange            :   -18.84070633 Eh
   Correlation         :    -1.00155548 Eh


               *****************************************************
               *                     SUCCESS                       *
               *           SCF CONVERGED AFTER   2 CYCLES          *
               *****************************************************

Recomputing exchange energy using gridx3       ... done (    0.221 sec)
Old exchange energy                            :     -4.744628855 Eh
New exchange energy                            :     -4.744617474 Eh
Exchange energy change after final integration :      0.000011381 Eh
Total energy after final integration           :   -182.807447620 Eh
             **** ENERGY FILE WAS UPDATED (job.en.tmp) ****

----------------
TOTAL SCF ENERGY
----------------

Total Energy       :       -182.80744761997721 Eh           -4974.44355 eV

Components:
Nuclear Repulsion  :        109.87150975353956 Eh            2989.75578 eV
Electronic Energy  :       -292.67896875467557 Eh           -7964.19963 eV
One Electron Energy:       -460.85726528797898 Eh          -12540.56374 eV
Two Electron Energy:        168.17829653330338 Eh            4576.36411 eV

Virial components:
Potential Energy   :       -386.71900565544661 Eh          -10523.15913 eV
Kinetic Energy     :        203.91155803546937 Eh            5548.71559 eV
Virial Ratio       :          1.89650360862908

DFT components:
N(Alpha)           :       10.999996122988 electrons
N(Beta)            :       10.999996122988 electrons
N(Total)           :       21.999992245975 electrons
E(X)               :      -18.840706326532 Eh       
E(C)               :       -1.001555478434 Eh       
E(XC)              :      -19.842261804966 Eh       

---------------
SCF CONVERGENCE
---------------

  Last Energy change         ...    6.2528e-12  Tolerance :   1.0000e-08
  Last MAX-Density change    ...    7.7798e-07  Tolerance :   1.0000e-07
  Last RMS-Density change    ...    1.1751e-07  Tolerance :   5.0000e-09
  Last DIIS Error            ...    8.8488e-07  Tolerance :   5.0000e-07
  Last Orbital Gradient      ...    3.3500e-07  Tolerance :   1.0000e-05
  Last Orbital Rotation      ...    2.8394e-07  Tolerance :   1.0000e-05


----------------
ORBITAL ENERGIES
----------------

  NO   OCC          E(Eh)            E(eV) 
   0   2.0000     -19.201460      -522.4983 
   1   2.0000     -19.201189      -522.4909 
   2   2.0000     -10.733239      -292.0663 
   3   2.0000      -1.279630       -34.8205 
   4   2.0000      -1.195860       -32.5410 
   5   2.0000      -0.969116       -26.3710 
   6   2.0000      -0.967631       -26.3306 
   7   2.0000      -0.519511       -14.1366 
   8   2.0000      -0.371229       -10.1017 
   9   2.0000      -0.367563       -10.0019 
  10   2.0000      -0.357551        -9.7295 
  11   0.0000       0.151882         4.1329 
  12   0.0000       0.226179         6.1547 
  13   0.0000       0.226882         6.1738 
  14   0.0000       0.315726         8.5913 
  15   0.0000       0.713294        19.4097 
  16   0.0000       0.794170        21.6105 
  17   0.0000       0.799332        21.7509 
  18   0.0000       0.803897        21.8752 
  19   0.0000       0.808587        22.0028 
  20   0.0000       0.851557        23.1720 
  21   0.0000       1.222750        33.2727 
  22   0.0000       1.325006        36.0552 
  23   0.0000       1.330957        36.2172 
  24   0.0000       1.377720        37.4897 
  25   0.0000       1.380059        37.5533 
  26   0.0000       1.590777        43.2872 
  27   0.0000       2.049637        55.7735 
  28   0.0000       2.560330        69.6701 
  29   0.0000       2.560462        69.6737 
  30   0.0000       2.956847        80.4599 
  31   0.0000       2.963817        80.6496 
  32   0.0000       3.277373        89.1819 
  33   0.0000       3.309024        90.0431 
  34   0.0000       3.552523        96.6691 
  35   0.0000       3.552529        96.6692 
  36   0.0000       4.136165       112.5508 
  37   0.0000       4.148359       112.8826 
  38   0.0000       4.490686       122.1978 
  39   0.0000       4.490695       122.1980 
  40   0.0000       6.336939       172.4369 
  41   0.0000       7.112517       193.5414 
------------------
MOLECULAR ORBITALS (RHF, ROHF)
------------------
                      0         1         2         3         4         5   
                 -19.20146 -19.20119 -10.73324  -1.27963  -1.19586  -0.96912
                   2.00000   2.00000   2.00000   2.00000   2.00000   2.00000
                  --------  --------  --------  --------  --------  --------
  0C   1s         0.003210  0.000056 -0.971634  0.000008 -0.376040 -0.000000
  0C   2s        -0.041688 -0.000731  0.094953  0.000015  0.000715 -0.000001
  0C   3s         0.003659  0.000064  0.007341 -0.000002  0.056543 -0.000000
  0C   1pz       -0.000056 -0.000001 -0.000005 -0.000000  0.002886 -0.517689
  0C   1px        0.000119 -0.006803  0.000001 -0.812778 -0.000021 -0.000000
  0C   1py        0.001176  0.000021  0.000103  0.000002 -0.060187 -0.024823
  0C   2pz       -0.000001 -0.000000 -0.000055 -0.000000  0.000958 -0.125168
  0C   2px       -0.000318  0.018103 -0.000000 -0.065443 -0.000002  0.000000
  0C   2py        0.000027  0.000000  0.001154  0.000001 -0.019971 -0.006002
  0C   1dz2      -0.003602 -0.000063 -0.006983 -0.000003  0.043968 -0.000406
  0C   1dxz      -0.000001  0.000070  0.000000 -0.001644 -0.000000 -0.000001
  0C   1dyz      -0.000000 -0.000000  0.000011  0.000000 -0.000074  0.004874
  0C   1dx2y2     0.006236  0.000109  0.012326  0.000005 -0.077695 -0.000234
  0C   1dxy       0.000026 -0.001454 -0.000000  0.034287  0.000001 -0.000000
  1O   1s        -0.684894 -0.709275 -0.029053 -0.238314  0.202506  0.000000
  1O   2s         0.030545  0.040773 -0.052768 -0.162352  0.495111  0.000001
  1O   3s         0.004911 -0.034151 -0.024715  0.219789  0.155912  0.000000
  1O   1pz        0.000001 -0.000071  0.000137  0.002218  0.000888 -0.364358
  1O   1px       -0.008999 -0.010123  0.034183  0.256940 -0.154228  0.000000
  1O   1py       -0.000013  0.001483 -0.002867 -0.046243 -0.018519 -0.017471
  1O   2pz       -0.000022  0.000003  0.000124  0.000011 -0.000889  0.027013
  1O   2px       -0.007835  0.001733  0.011733 -0.124885 -0.038330 -0.000000
  1O   2py        0.000453 -0.000063 -0.002594 -0.000231  0.018535  0.001295
  1O   1dz2      -0.001106 -0.002617  0.003685  0.030530  0.008203  0.000244
  1O   1dxz       0.000003  0.000036 -0.000081 -0.000653 -0.000146  0.040892
  1O   1dyz       0.000003 -0.000007  0.000005  0.000123  0.000009 -0.002927
  1O   1dx2y2     0.001971  0.004392 -0.006282 -0.050317 -0.014016  0.000141
  1O   1dxy      -0.000072 -0.000754  0.001690  0.013613  0.003054  0.001961
  2O   1s        -0.709350  0.684817 -0.029054  0.238305  0.202520  0.000000
  2O   2s         0.031956 -0.039676 -0.052768  0.162312  0.495122  0.000001
  2O   3s         0.003710  0.034302 -0.024714 -0.219800  0.155902  0.000000
  2O   1pz       -0.000002  0.000071  0.000137 -0.002218  0.000888 -0.364366
  2O   1px        0.009349 -0.009801 -0.034183  0.256930  0.154238 -0.000000
  2O   1py        0.000039 -0.001483 -0.002867  0.046244 -0.018518 -0.017471
  2O   2pz       -0.000022 -0.000004  0.000124 -0.000011 -0.000889  0.027012
  2O   2px        0.007770  0.002006 -0.011733 -0.124889  0.038323  0.000000
  2O   2py        0.000451  0.000079 -0.002594  0.000229  0.018535  0.001295
  2O   1dz2      -0.001197  0.002577  0.003685 -0.030530  0.008202  0.000244
  2O   1dxz      -0.000005  0.000036  0.000081 -0.000653  0.000146 -0.040894
  2O   1dyz       0.000002  0.000007  0.000005 -0.000123  0.000009 -0.002927
  2O   1dx2y2     0.002124 -0.004320 -0.006282  0.050318 -0.014015  0.000141
  2O   1dxy       0.000098 -0.000751 -0.001690  0.013612 -0.003054 -0.001961
                      6         7         8         9        10        11   
                  -0.96763  -0.51951  -0.37123  -0.36756  -0.35755   0.15188
                   2.00000   2.00000   2.00000   2.00000   2.00000   0.00000
                  --------  --------  --------  --------  --------  --------
  0C   1s         0.030696  0.000002 -0.000000  0.000003 -0.284971 -0.060241
  0C   2s         0.132598 -0.000007 -0.000000  0.000010 -0.690000 -0.710459
  0C   3s         0.004256 -0.000000 -0.000000  0.000003 -0.240617 -3.209929
  0C   1pz        0.024717 -0.000000 -0.000002 -0.000000 -0.000066 -0.000093
  0C   1px       -0.000001  0.387370 -0.000001 -0.051385 -0.000004 -0.000001
  0C   1py       -0.515496  0.000000 -0.000000  0.000002  0.001373  0.001949
  0C   2pz        0.005805  0.000000 -0.000002 -0.000000 -0.000510  0.001870
  0C   2px       -0.000000 -0.118348  0.000000  0.016858  0.000001  0.000006
  0C   2py       -0.121064 -0.000000 -0.000000  0.000001  0.010634 -0.038993
  0C   1dz2      -0.027602  0.000001  0.000000 -0.000001  0.079149 -0.042385
  0C   1dxz       0.000000  0.000927 -0.014955 -0.000855 -0.000000 -0.000000
  0C   1dyz      -0.000462 -0.000000  0.000000  0.000000 -0.000012  0.000022
  0C   1dx2y2     0.038196 -0.000002 -0.000000  0.000002 -0.137341  0.073861
  0C   1dxy      -0.000001 -0.019331 -0.000717  0.017827  0.000000  0.000000
  1O   1s        -0.015743 -0.082987 -0.000000 -0.009993 -0.056256  0.087310
  1O   2s        -0.114007 -0.300024 -0.000000 -0.007760  0.133380  0.040547
  1O   3s        -0.055675 -0.359470  0.000000  0.006165  0.057903  1.891938
  1O   1pz        0.017500 -0.003159 -0.557078 -0.026402 -0.001979 -0.000924
  1O   1px       -0.009809 -0.423093  0.000001  0.081229 -0.503215  0.034883
  1O   1py       -0.364980  0.065876 -0.026705  0.550756  0.041259  0.019277
  1O   2pz       -0.001028 -0.001304 -0.341745 -0.016342 -0.001875 -0.002762
  1O   2px        0.016050 -0.072396  0.000000  0.022751 -0.393657 -0.254728
  1O   2py        0.021449  0.027184 -0.016382  0.340901  0.039093  0.057606
  1O   1dz2      -0.002157 -0.025097  0.000460  0.001207  0.003289 -0.010443
  1O   1dxz      -0.001972  0.000582  0.055516  0.002569  0.000171  0.000064
  1O   1dyz       0.000290 -0.000102 -0.005524 -0.000518 -0.000029  0.000011
  1O   1dx2y2     0.009760  0.041350  0.000265 -0.012864 -0.006304  0.018323
  1O   1dxy       0.041125 -0.012131  0.002661 -0.053586 -0.003569 -0.001325
  2O   1s        -0.015743  0.082985  0.000000  0.009995 -0.056255  0.087311
  2O   2s        -0.114008  0.300029  0.000000  0.007756  0.133381  0.040547
  2O   3s        -0.055676  0.359468 -0.000000 -0.006166  0.057905  1.891959
  2O   1pz        0.017501  0.003159  0.557074  0.026401 -0.001978 -0.000924
  2O   1px        0.009810 -0.423093  0.000002  0.081216  0.503219 -0.034883
  2O   1py       -0.364988 -0.065876  0.026705 -0.550753  0.041245  0.019277
  2O   2pz       -0.001028  0.001304  0.341743  0.016342 -0.001874 -0.002762
  2O   2px       -0.016050 -0.072395  0.000000  0.022740  0.393658  0.254730
  2O   2py        0.021448 -0.027183  0.016382 -0.340900  0.039084  0.057606
  2O   1dz2      -0.002157  0.025097 -0.000460 -0.001207  0.003290 -0.010443
  2O   1dxz       0.001972  0.000582  0.055516  0.002569 -0.000171 -0.000064
  2O   1dyz       0.000290  0.000102  0.005524  0.000518 -0.000029  0.000011
  2O   1dx2y2     0.009760 -0.041349 -0.000265  0.012864 -0.006305  0.018323
  2O   1dxy      -0.041127 -0.012131  0.002661 -0.053586  0.003568  0.001325
                     12        13        14        15        16        17   
                   0.22618   0.22688   0.31573   0.71329   0.79417   0.79933
                   0.00000   0.00000   0.00000   0.00000   0.00000   0.00000
                  --------  --------  --------  --------  --------  --------
  0C   1s         0.000000 -0.007495  0.000001  0.220283  0.000001 -0.000025
  0C   2s         0.000004 -0.063407  0.000005 -4.076524 -0.000013  0.000532
  0C   3s        -0.000018  0.299358  0.000012 -1.585849 -0.000003  0.000117
  0C   1pz       -0.231261 -0.011117 -0.000000 -0.024224  1.142943 -0.000010
  0C   1px       -0.000000  0.000000  0.096493  0.000004  0.000000 -0.276109
  0C   1py       -0.011104  0.231537  0.000000  0.505132  0.054805  0.000200
  0C   2pz        1.693829  0.081726 -0.000000 -0.028665  1.555208 -0.000014
  0C   2px        0.000000  0.000002  3.240539 -0.000008  0.000000  0.288545
  0C   2py        0.081329 -1.702120  0.000001  0.597736  0.074573  0.000286
  0C   1dz2      -0.000114  0.022352  0.000000  0.020209 -0.003805 -0.000015
  0C   1dxz      -0.000001 -0.000000 -0.000665  0.000000 -0.000033  0.018257
  0C   1dyz       0.001348  0.000130 -0.000000 -0.001354  0.045710 -0.000001
  0C   1dx2y2    -0.000063 -0.036018 -0.000000 -0.063176 -0.002197  0.000009
  0C   1dxy      -0.000000  0.000001  0.013877 -0.000001 -0.000002 -0.380717
  1O   1s         0.000000 -0.007320 -0.062329 -0.020159 -0.000000  0.005356
  1O   2s        -0.000004  0.059214  0.003292  0.149055  0.000001 -0.029943
  1O   3s         0.000012 -0.197058 -2.874466  2.351052  0.000006  1.303405
  1O   1pz       -0.121328 -0.005915  0.000769  0.005111 -0.180536  0.015234
  1O   1px        0.000001 -0.018119 -0.155086  0.289744  0.000001  0.040369
  1O   1py       -0.005826  0.123199 -0.016044 -0.106587 -0.008657 -0.317670
  1O   2pz       -0.442561 -0.021365  0.003039  0.020917 -1.413193 -0.049730
  1O   2px        0.000001 -0.011479 -0.021245 -1.531825 -0.000004 -1.197636
  1O   2py       -0.021249  0.444973 -0.063363 -0.436176 -0.067763  1.037023
  1O   1dz2       0.000018  0.003449  0.001866 -0.024585 -0.000806 -0.009601
  1O   1dxz       0.030427  0.001482 -0.000303  0.001492 -0.073403  0.002419
  1O   1dyz      -0.000224 -0.000029  0.000059 -0.000297  0.009680 -0.000749
  1O   1dx2y2     0.000011 -0.006575 -0.001999  0.036408 -0.000465  0.001037
  1O   1dxy       0.001461 -0.030862  0.006323 -0.031110 -0.003520 -0.050445
  2O   1s         0.000000 -0.007320  0.062328 -0.020160 -0.000000 -0.005355
  2O   2s        -0.000004  0.059215 -0.003292  0.149060  0.000001  0.029858
  2O   3s         0.000012 -0.197054  2.874447  2.351083  0.000006 -1.303890
  2O   1pz       -0.121328 -0.005915 -0.000769  0.005111 -0.180480 -0.015231
  2O   1px       -0.000001  0.018118 -0.155088 -0.289743 -0.000001  0.040409
  2O   1py       -0.005826  0.123199  0.016044 -0.106585 -0.008654  0.317608
  2O   2pz       -0.442559 -0.021365 -0.003038  0.020918 -1.413385  0.049756
  2O   2px       -0.000001  0.011479 -0.021255  1.531845  0.000004 -1.197958
  2O   2py       -0.021249  0.444972  0.063361 -0.436188 -0.067772 -1.037560
  2O   1dz2       0.000018  0.003449 -0.001866 -0.024586 -0.000806  0.009604
  2O   1dxz      -0.030428 -0.001482 -0.000303 -0.001492  0.073395  0.002418
  2O   1dyz      -0.000224 -0.000029 -0.000059 -0.000297  0.009679  0.000749
  2O   1dx2y2     0.000011 -0.006575  0.001999  0.036409 -0.000465 -0.001050
  2O   1dxy      -0.001461  0.030863  0.006323  0.031110  0.003519 -0.050421
                     18        19        20        21        22        23   
                   0.80390   0.80859   0.85156   1.22275   1.32501   1.33096
                   0.00000   0.00000   0.00000   0.00000   0.00000   0.00000
                  --------  --------  --------  --------  --------  --------
  0C   1s        -0.120684 -0.000000  0.000001  0.045096  0.013179 -0.000000
  0C   2s         2.638084  0.000000 -0.000024 -0.257628 -0.352116  0.000000
  0C   3s         0.565691  0.000000 -0.000004 -3.136362 -0.792007  0.000003
  0C   1pz       -0.048678  0.000091  0.000001 -0.001709  0.010846  0.233568
  0C   1px        0.000058  0.000000  0.492390 -0.000004 -0.000002 -0.000000
  0C   1py        1.015197  0.000004 -0.000013  0.035628 -0.226118  0.011202
  0C   2pz       -0.068310  0.000118  0.000001  0.008093 -0.073424 -1.488745
  0C   2px       -0.000067 -0.000000 -0.903007  0.000005  0.000001  0.000000
  0C   2py        1.424627  0.000006 -0.000016 -0.168757  1.530880 -0.071401
  0C   1dz2      -0.078514 -0.000000  0.000000 -0.265100  0.130490 -0.030344
  0C   1dxz      -0.000004  0.434787  0.009987 -0.000000  0.000000  0.000001
  0C   1dyz      -0.004169  0.000004  0.000000 -0.002436  0.028979  0.364445
  0C   1dx2y2     0.049251 -0.000000  0.000001  0.408476  0.376898 -0.017521
  0C   1dxy       0.000075  0.020850 -0.208257  0.000000 -0.000001  0.000000
  1O   1s        -0.001385  0.000000  0.013391 -0.212709 -0.020471  0.000000
  1O   2s        -0.222528  0.000000  0.049027 -2.026506 -0.499068  0.000002
  1O   3s        -1.186309 -0.000000 -2.332383  3.269700  0.931134 -0.000003
  1O   1pz        0.007568  0.356199  0.007853  0.007410 -0.033865 -0.710758
  1O   1px       -0.091785 -0.000000 -0.115130 -0.120774 -0.034725  0.000000
  1O   1py       -0.157825  0.017081 -0.163761 -0.154516  0.706065 -0.034088
  1O   2pz        0.064835 -1.153907 -0.024616 -0.010457  0.056850  1.176419
  1O   2px        0.788855  0.000000  2.459528 -0.145975 -0.156594  0.000000
  1O   2py       -1.352146 -0.055336  0.513310  0.218050 -1.185323  0.056422
  1O   1dz2       0.007859  0.000728  0.004122 -0.015627  0.022775 -0.004083
  1O   1dxz       0.003029  0.055435  0.001064  0.000254 -0.004932 -0.100453
  1O   1dyz      -0.000858 -0.008748 -0.000368 -0.000099  0.003780  0.049032
  1O   1dx2y2    -0.031471  0.000420 -0.014794  0.025008  0.039189 -0.002357
  1O   1dxy      -0.063173  0.002658 -0.022193 -0.005292  0.102835 -0.004818
  2O   1s        -0.001383 -0.000000 -0.013392 -0.212710 -0.020471  0.000000
  2O   2s        -0.222545 -0.000000 -0.049025 -2.026517 -0.499071  0.000002
  2O   3s        -1.185759  0.000000  2.332406  3.269730  0.931145 -0.000003
  2O   1pz        0.007574 -0.356227 -0.007853  0.007410 -0.033865 -0.710757
  2O   1px        0.091766 -0.000000 -0.115132  0.120777  0.034727 -0.000000
  2O   1py       -0.157948 -0.017083  0.163764 -0.154516  0.706063 -0.034088
  2O   2pz        0.064817  1.153688  0.024614 -0.010457  0.056851  1.176421
  2O   2px       -0.788331  0.000000  2.459542  0.145975  0.156597 -0.000000
  2O   2py       -1.351755  0.055325 -0.513280  0.218050 -1.185325  0.056422
  2O   1dz2       0.007855 -0.000728 -0.004122 -0.015628  0.022775 -0.004083
  2O   1dxz      -0.003030  0.055447  0.001064 -0.000254  0.004932  0.100454
  2O   1dyz      -0.000859  0.008750  0.000368 -0.000099  0.003780  0.049032
  2O   1dx2y2    -0.031470 -0.000421  0.014795  0.025009  0.039189 -0.002357
  2O   1dxy       0.063193  0.002659 -0.022195  0.005292 -0.102835  0.004818
                     24        25        26        27        28        29   
                   1.37772   1.38006   1.59078   2.04964   2.56033   2.56046
                   0.00000   0.00000   0.00000   0.00000   0.00000   0.00000
                  --------  --------  --------  --------  --------  --------
  0C   1s         0.006562 -0.000001  0.000001 -0.033937  0.000000 -0.000000
  0C   2s        -0.255667  0.000022 -0.000002  6.679121 -0.000001  0.000000
  0C   3s        -0.208937  0.000018 -0.000007  1.633512 -0.000000  0.000000
[...]
Spin-dipole/Fermi contact perturbations ...  NO (   0 perturbations)

Total number of real perturbations      ...     12
Total number of imaginary perturbations ...      0
Total number of triplet perturbations   ...      0
Total number of SOC perturbations       ...      0


                                **********************
                                * REAL PERTURBATIONS *
                                **********************



-------------------
SHARK CP-SCF DRIVER
-------------------

Dimension of the orbital basis          ...     42
Dimension of the CPSCF-problem          ...    341
Number of operators                     ...      1
Max. number of iterations               ...    128
Convergence Tolerance                   ... 1.0e-04
Number of perturbations                 ...     12
Perturbation type                       ... REAL

----------------------------
POPLE LINEAR EQUATION SOLVER
----------------------------

  ITERATION   0:   ||err||_max =   7.3469e-01 (   0.1 sec   0/ 12 done)
  ITERATION   1:   ||err||_max =   6.7003e-02 (   0.1 sec   0/ 12 done)
  ITERATION   2:   ||err||_max =   9.1138e-03 (   0.1 sec   0/ 12 done)
  ITERATION   3:   ||err||_max =   1.6689e-03 (   0.1 sec   0/ 12 done)
  ITERATION   4:   ||err||_max =   2.8108e-04 (   0.1 sec   8/ 12 done)
  ITERATION   5:   ||err||_max =   2.8668e-05 (   0.1 sec  12/ 12 done)

CP-SCF equations solved in   0.6 sec
Response densities calculated in   0.0 sec

Maximum memory used throughout the entire SCFRESP-calculation: 7.1 MB

------------------------------------------------------------------------------
                              ORCA PROPERTY CALCULATIONS
------------------------------------------------------------------------------

GBWName                                 ... job.gbw
Number of atoms                         ...      3
Number of basis functions               ...     42
Max core memory                         ...   1024 MB

Electric properties:
Dipole moment                           ... YES
Quadrupole moment                       ...  NO
Static polarizability (Dipole/Dipole)   ... YES
Static polarizability (Dipole/Quad.)    ...  NO
Static polarizability (Quad./Quad.)     ...  NO
Static polarizability (Velocity)        ...  NO

Atomic electric properties:
Dipole moment                           ...  NO
Quadrupole moment                       ...  NO
Static polarizability                   ...  NO

Choice of electric origin               ... Center of mass
Position of electric origin             ...     0.000000     0.001994    -0.000096

General magnetic properties:
Magnetizability                         ...  NO

EPR properties:
g-Tensor (aka g-matrix)                 ...  NO
Zero-Field splitting spin-orbit         ...  NO
Zero-field splitting spin-spin          ...  NO
Hyperfine couplings                     ...  NO (   0 nuclei)
Quadrupole couplings                    ...  NO (   0 nuclei)
Contact density                         ...  NO (   0 nuclei)

NMR properties:
Chemical shifts                         ...  NO (   0 nuclei)
Spin-rotation constants                 ...  NO (   0 nuclei)
Spin-spin couplings                     ...  NO (   0 nuclei,    0 pairs)

Choice of magnetic origin               ... GIAO
Position of magnetic origin             ...     0.000000     0.000000     0.000000

Properties with geometric perturbations:
SCF Hessian                             ... YES
IR spectrum                             ... YES
VCD spectrum                            ...  NO
X-ray spectroscopy properties:
SCF XES/XAS/RIXS spectra                ...  NO


-------------
DIPOLE MOMENT
-------------

Method             : SCF
Type of density    : Electron Density
Multiplicity       :   1
Irrep              :   0
Energy             :  -182.8074476199772107 Eh
Relativity type    : 
Basis              : AO
                                X                 Y                 Z
Electronic contribution:     -0.000013724       0.086127495      -0.004130256
Nuclear contribution   :      0.000000017      -0.000309633       0.000014848
                        -----------------------------------------
Total Dipole Moment    :     -0.000013707       0.085817862      -0.004115407
                        -----------------------------------------
Magnitude (a.u.)       :      0.085916484
Magnitude (Debye)      :      0.218382347



--------------------
Rotational spectrum 
--------------------
 
Rotational constants in cm-1:          1309.102551             1.390230             1.388755 
Rotational constants in MHz :      39245907.152115         41678.051592         41633.837625 

Dipole components along the rotational axes: 
x,y,z [a.u.] :    -0.000014     0.085916    -0.000000 
x,y,z [Debye]:    -0.000035     0.218382    -0.000000 

 

Dipole moment calculation done in   0.0 sec 


---------------------------------------------------
STATIC POLARIZABILITY TENSOR (Dipole/Dipole)
---------------------------------------------------

Method             : SCF
Type of density    : Electron Density
Type of derivative : Electric Field (Direction=X)
Multiplicity       :   1
Irrep              :   0
Relativity type    : 
Basis              : AO

The raw cartesian tensor (atomic units):
       8.407059691        -0.000001774         0.000000086  
      -0.000001774         4.215634895        -0.001984260  
       0.000000086        -0.001984260         4.174257485  
diagonalized tensor: 
       4.174162548         4.215729832         8.407059691  

Orientation: 
      -0.000000000         0.000000424        -1.000000000  
       0.047790705         0.998857371         0.000000423  
       0.998857371        -0.047790705        -0.000000021  

Isotropic polarizability :   5.59898


Polarizability tensor calculation done in   0.0 sec 

-----------
SCF HESSIAN
-----------

Occupied/Occupied contributions to the Hessian:
   => Occupied/Occupied contributions              ... done (  0.0 sec)
Perturbed density contributions to the Hessian:
   => Perturbed density contributions              ... done (  0.0 sec)
Explicit contributions to the Hessian:
   => Nuclear repulsion Hessian                    ... done (  0.0 sec)
   => HCore and overlap Hessian                    ... done (  0.0 sec)
   => RI-J Hessian                                 ... done (  0.2 sec)
   => COSX Hessian                                 ... done ( 10.8 sec)
   => XC-Hessian                                   ... done (  0.8 sec)
   => Explicit contributions done
E-field response densities           ... done
Dipole derivatives                                 ... done (  0.0 sec)
Mass weighting the Hessian           ... done
Calculating normal modes             ... done
Scaling frequencies                  ... done

-----------------------
VIBRATIONAL FREQUENCIES
-----------------------

Scaling factor for frequencies =  1.000000000  (already applied!)

     0:       0.00 cm**-1
     1:       0.00 cm**-1
     2:       0.00 cm**-1
     3:       0.00 cm**-1
     4:       0.00 cm**-1
     5:       0.00 cm**-1
     6:   -6469.09 cm**-1  ***imaginary mode***
     7:    7367.76 cm**-1
     8:   13990.41 cm**-1


------------
NORMAL MODES
------------

These modes are the Cartesian displacements weighted by the diagonal matrix
M(i,i)=1/sqrt(m[i]) where m[i] is the mass of the displaced atom
Thus, these vectors are normalized but *not* orthogonal

                  0          1          2          3          4          5    
      0       0.000000   0.000000   0.000000   0.000000   0.000000   0.000000
      1       0.000000   0.000000   0.000000   0.000000   0.000000   0.000000
      2       0.000000   0.000000   0.000000   0.000000   0.000000   0.000000
      3       0.000000   0.000000   0.000000   0.000000   0.000000   0.000000
      4       0.000000   0.000000   0.000000   0.000000   0.000000   0.000000
      5       0.000000   0.000000   0.000000   0.000000   0.000000   0.000000
      6       0.000000   0.000000   0.000000   0.000000   0.000000   0.000000
      7       0.000000   0.000000   0.000000   0.000000   0.000000   0.000000
      8       0.000000   0.000000   0.000000   0.000000   0.000000   0.000000
                  6          7          8    
      0       0.000000  -0.000009  -0.882885
      1      -0.880617   0.066517  -0.000001
      2       0.042230  -0.003190   0.000000
      3       0.042988   0.705098   0.331400
      4       0.330553  -0.024969  -0.020649
      5      -0.015852   0.001197   0.000990
      6      -0.042988  -0.705091   0.331412
      7       0.330556  -0.024968   0.020649
      8      -0.015852   0.001197  -0.000990


-----------
IR SPECTRUM
-----------

 Mode   freq       eps      Int      T**2         TX        TY        TZ
       cm**-1   L/(mol*cm) km/mol    a.u.
----------------------------------------------------------------------------
  7:   7367.76   0.000018    0.09  0.000001  (-0.000001  0.000880 -0.000042)
  8:  13990.41   0.260581  1316.87  0.005812  (-0.076239 -0.000000  0.000000)

* The epsilon (eps) is given for a Dirac delta lineshape.
** The dipole moment derivative (T) already includes vibrational overlap.

The first frequency considered to be a vibration is 7
The total number of vibrations considered is 2


--------------------------
THERMOCHEMISTRY AT 298.15K
--------------------------

Temperature         ...   298.15 K
Pressure            ...     1.00 atm
Total Mass          ...    44.01 AMU
Quasi RRHO          ...     True
Cut-Off Frequency   ...     1.00 cm^-1

Throughout the following assumptions are being made:
  (1) The electronic state is orbitally nondegenerate
  (2) There are no thermally accessible electronically excited states
  (3) Hindered rotations indicated by low frequency modes are not
      treated as such but are treated as vibrations and this may
      cause some error
  (4) All equations used are the standard statistical mechanics
      equations for an ideal gas
  (5) All vibrations are strictly harmonic

freq.    7367.76  E(vib)   ...       0.00 
freq.   13990.41  E(vib)   ...       0.00 

------------
INNER ENERGY
------------

The inner energy is: U= E(el) + E(ZPE) + E(vib) + E(rot) + E(trans)
    E(el)   - is the total energy from the electronic structure calculation
              = E(kin-el) + E(nuc-el) + E(el-el) + E(nuc-nuc)
    E(ZPE)  - the the zero temperature vibrational energy from the frequency calculation
    E(vib)  - the the finite temperature correction to E(ZPE) due to population
              of excited vibrational states
    E(rot)  - is the rotational thermal energy
    E(trans)- is the translational thermal energy

Summary of contributions to the inner energy U:
Electronic energy                ...   -182.80744762 Eh
Zero point energy                ...      0.04865749 Eh      30.53 kcal/mol
Thermal vibrational correction   ...      0.00000000 Eh       0.00 kcal/mol
Thermal rotational correction    ...      0.00141627 Eh       0.89 kcal/mol
Thermal translational correction ...      0.00141627 Eh       0.89 kcal/mol
-----------------------------------------------------------------------
Total thermal energy                   -182.75595758 Eh


Summary of corrections to the electronic energy:
(perhaps to be used in another calculation)
Total thermal correction                  0.00283254 Eh       1.78 kcal/mol
Non-thermal (ZPE) correction              0.04865749 Eh      30.53 kcal/mol
-----------------------------------------------------------------------
Total correction                          0.05149004 Eh      32.31 kcal/mol


--------
ENTHALPY
--------

The enthalpy is H = U + kB*T
                kB is Boltzmann's constant
Total thermal energy              ...   -182.75595758 Eh 
Thermal Enthalpy correction       ...      0.00094421 Eh       0.59 kcal/mol
-----------------------------------------------------------------------
Total Enthalpy                    ...   -182.75501338 Eh


Note: Rotational entropy computed according to Herzberg 
Infrared and Raman Spectra, Chapter V,1, Van Nostrand Reinhold, 1945 
Point Group:  C2v, Symmetry Number:   2  
Rotational constants in cm-1:  1309.102551     1.390230     1.388755 

Vibrational entropy computed according to the QRRHO of S. Grimme
Chem.Eur.J. 2012 18 9955 using a reference frequency of 100.0 cm-1


-------
ENTROPY
-------

The entropy contributions are T*S = T*(S(el)+S(vib)+S(rot)+S(trans))
     S(el)   - electronic entropy
     S(vib)  - vibrational entropy
     S(rot)  - rotational entropy
     S(trans)- translational entropy
The entropies will be listed as multiplied by the temperature to get
units of energy

Electronic entropy                ...      0.00000000 Eh      0.00 kcal/mol
Vibrational entropy               ...     -0.00000000 Eh     -0.00 kcal/mol
Rotational entropy                ...      0.00515754 Eh      3.24 kcal/mol
Translational entropy             ...      0.01770880 Eh     11.11 kcal/mol
-----------------------------------------------------------------------
Final entropy term                ...      0.02286634 Eh     14.35 kcal/mol

In case the symmetry of your molecule has not been determined correctly
or in case you have a reason to use a different symmetry number we print 
out the resulting rotational entropy values for sn=1,12:

 non-linear molecules -----------------------------------
|  sn= 1 | S(rot)=       0.00581199 Eh      3.65 kcal/mol|
|  sn= 2 | S(rot)=       0.00515754 Eh      3.24 kcal/mol|
|  sn= 3 | S(rot)=       0.00477470 Eh      3.00 kcal/mol|
|  sn= 4 | S(rot)=       0.00450308 Eh      2.83 kcal/mol|
|  sn= 5 | S(rot)=       0.00429239 Eh      2.69 kcal/mol|
|  sn= 6 | S(rot)=       0.00412025 Eh      2.59 kcal/mol|
|  sn= 7 | S(rot)=       0.00397470 Eh      2.49 kcal/mol|
|  sn= 8 | S(rot)=       0.00384862 Eh      2.42 kcal/mol|
|  sn= 9 | S(rot)=       0.00373742 Eh      2.35 kcal/mol|
|  sn=10 | S(rot)=       0.00363794 Eh      2.28 kcal/mol|
|  sn=11 | S(rot)=       0.00354795 Eh      2.23 kcal/mol|
|  sn=12 | S(rot)=       0.00346579 Eh      2.17 kcal/mol|
 linear molecules ---------------------------------------
|  Dinfh | S(rot)=       0.00501573 Eh      3.15 kcal/mol|
|  Cinfv | S(rot)=       0.00567019 Eh      3.56 kcal/mol|
 --------------------------------------------------------


-------------------
GIBBS FREE ENERGY
-------------------

The Gibbs free energy is G = H - T*S

Total enthalpy                    ...   -182.75501338 Eh 
Total entropy correction          ...     -0.02286634 Eh    -14.35 kcal/mol
-----------------------------------------------------------------------
Final Gibbs free energy         ...   -182.77787971 Eh

For completeness - the Gibbs free energy minus the electronic energy
G-E(el)                           ...      0.02956791 Eh     18.55 kcal/mol


Maximum memory used throughout the entire PROP-calculation: 10.1 MB

--------------------------------
SUGGESTED CITATIONS FOR THIS RUN
--------------------------------

Below you find a list of papers that are relevant to this ORCA run
We neither can nor want to force you to cite these papers, but we appreciate if you do
You receive ORCA, which is the product of decades of hard work by many enthusiastic individuals, for free
The only thing we kindly ask in return is that you cite our papers,
We deeply appreciate it, if you show your appreciation for ORCA by not just citing the generic ORCA reference.

Please note that relegating all ORCA citations to the supporting information does *not* help us.
SI sections are not indexed - citations you put there will not count into any citation statistics
But we need these citations in order to attract the funding resources that allow us to do what we are doing

Therefore, if you are a happy ORCA user, please consider citing a few of the papers listed below in the main body of your paper

In addition to the list printed below, the program has created the file job.bibtex that contains the list in bibtex format
You can import this file easily into all common literature databanks and citation aid programs


List of essential papers. We consider these as the minimum necessary citations

  1. Neese,F.
     Software update: the ORCA program system, version 5.0
     WIRES Comput. Molec. Sci., 2022 12(1)e1606
     doi.org/10.1002/wcms.1606

List of papers to cite with high priority. The work reported in these papers was absolutely
necessary for this run to complete.
Our perspective: the developers of density functionals and basis sets usually get cited in chemistry papers
Good! But without the algorithms to do something with them, the functionals or basis sets would not do anything.
Hence, in our opinion, the algorithm design and method developments papers are equally worthy of getting cited

  1. Neese,F.
     An improvement of the resolution of the identity approximation for the formation of the Coulomb matrix
     J. Comp. Chem., 2003 24(14)1740-1747
     doi.org/10.1002/jcc.10318
  2. Neese,F.; Wennmohs,F.; Hansen,A.; Becker,U.
     Efficient, approximate and parallel Hartree-Fock and hybrid DFT calculations. A 'chain-of-spheres' algorithm for the Hartree-Fock exchange
     Chem. Phys., 2009 356(1-3)98-109
     doi.org/10.1016/j.chemphys.2008.10.036
  3. Bykov,D.; Petrenko,T.; Izsak,R.; Kossmann,S.; Becker,U.; Valeev,E.; Neese,F.
     Efficient implementation of the analytic second derivatives of Hartree-Fock and hybrid DFT energies: a detailed analysis of different approximations
     Molec. Phys., 2015 113 1961-1977
     doi.org/10.1080/00268976.2015.1025114
  4. Helmich-Paris,B.; de Souza,B.; Neese,F.; Izsák,R.
     An improved chain of spheres for exchange algorithm
     J. Chem. Phys., 2021 155 104109
     doi.org/doi: 10.1063/5.0058766.
  5. Neese,F.
     The SHARK Integral Generation and Digestion System
     J. Comp. Chem., 2022  1-16
     doi.org/10.1002/jcc.26942

List of suggested additional citations. These are papers that are important in the 'surrounding' of 
of this run, or papers that preceded the highly important papers. If you like your results we are grateful for a citation.

  1. Izsak,R.; Neese,F.
     An overlap fitted chain of spheres exchange method
     J. Chem. Phys., 2011 135 144105
     doi.org/10.1063/1.3646921
  2. Izsak,R.; Hansen,A.; Neese,F.
     The resolution of identity and chain of spheres approximations for the LPNO-CCSD singles Fock term
     Molec. Phys., 2012 110 2413-2417
     doi.org/10.1080/00268976.2012.687466
  3. Neese,F.
     The ORCA program system
     WIRES Comput. Molec. Sci., 2012 2(1)73-78
     doi.org/10.1002/wcms.81
  4. Izsak,R.; Neese,F.; Klopper,W.
     Robust fitting techniques in the chain of spheres approximation to the Fock exchange: The role of the complementary space
     J. Chem. Phys., 2013 139 
     doi.org/10.1063/1.4819264
  5. Neese,F.
     Software update: the ORCA program system, version 4.0
     WIRES Comput. Molec. Sci., 2018 8(1)1-6
     doi.org/10.1002/wcms.1327
  6. Neese,F.; Wennmohs,F.; Becker,U.; Riplinger,C.
     The ORCA quantum chemistry program package
     J. Chem. Phys., 2020 152 Art. No. L224108
     doi.org/10.1063/5.0004608

List of optional additional citations

  1. Neese,F.
     Approximate second-order SCF convergence for spin unrestricted wavefunctions
     Chem. Phys. Lett., 2000 325(1-3)93-98
     doi.org/10.1016/s0009-2614(00)00662-x

Timings for individual modules:

Sum of individual times          ...       14.910 sec (=   0.249 min)
Startup calculation              ...        0.174 sec (=   0.003 min)   1.2 %
SCF iterations                   ...        0.640 sec (=   0.011 min)   4.3 %
Property integrals               ...        1.594 sec (=   0.027 min)  10.7 %
SCF Response                     ...        0.704 sec (=   0.012 min)   4.7 %
Property calculations            ...       11.798 sec (=   0.197 min)  79.1 %
                             ****ORCA TERMINATED NORMALLY****
TOTAL RUN TIME: 0 days 0 hours 0 minutes 14 seconds 966 msec
