
                                 *****************
                                 * O   R   C   A *
                                 *****************

                                            #,                                       
                                            ###                                      
                                            ####                                     
                                            #####                                    
                                            ######                                   
                                           ########,                                 
                                     ,,################,,,,,                         
                               ,,#################################,,                 
                          ,,##########################################,,             
                       ,#########################################, ''#####,          
                    ,#############################################,,   '####,        
                  ,##################################################,,,,####,       
                ,###########''''           ''''###############################       
              ,#####''   ,,,,##########,,,,          '''####'''          '####       
            ,##' ,,,,###########################,,,                        '##       
           ' ,,###''''                  '''############,,,                           
         ,,##''                                '''############,,,,        ,,,,,,###''
      ,#''                                            '''#######################'''  
     '                                                          ''''####''''         
             ,#######,   #######,   ,#######,      ##                                
            ,#'     '#,  ##    ##  ,#'     '#,    #''#        ,####,   ,####,        
            ##       ##  ##   ,#'  ##            #'  '#       #'       #'  '#        
            ##       ##  #######   ##           ,######,      #####,   #    #        
            '#,     ,#'  ##    ##  '#,     ,#' ,#      #,     #,   #   #,  ,#        
             '#######'   ##     ##  '#######'  #'      '#     '####' # '####'        



                #########################################################
                #                        -***-                          #
                #          Department of theory and spectroscopy        #
                #                                                       #
                #                      Frank Neese                      #
                #                                                       #
                #     Directorship, Architecture, Infrastructure        #
                #                    SHARK, DRIVERS                     #
                #        Core code/Algorithms in most modules           #
                #                                                       #
                #        Max Planck Institute fuer Kohlenforschung      #
                #                Kaiser Wilhelm Platz 1                 #
                #                 D-45470 Muelheim/Ruhr                 #
                #                      Germany                          #
                #                                                       #
                #                  All rights reserved                  #
                #                        -***-                          #
                #########################################################


                         Program Version 6.0.1  -  RELEASE   -


 With contributions from (in alphabetic order):
[Max-Planck-Institut fuer Kohlenforschung]                               
  Daniel Aravena         : Magnetic Suceptibility                        
  Michael Atanasov       : Ab Initio Ligand Field Theory (pilot matlab implementation)
  Alexander A. Auer      : GIAO ZORA, VPT2 properties, NMR spectrum      
  Ute Becker             : All parallelization in ORCA, NUMFREQ, NUMCALC 
  Giovanni Bistoni       : ED, misc. LED, open-shell LED, HFLD           
  Martin Brehm           : Molecular dynamics                            
  Dmytro Bykov           : pre 5.0 version of the SCF Hessian            
  Marcos Casanova-Páez   : Triplet and SCS-CIS(D). UHF-(DLPNO)-IP/EA/STEOM-CCSD. UHF-CVS-IP/STEOM-CCSD   
  Vijay G. Chilkuri      : MRCI spin determinant printing, contributions to CSF-ICE 
  Pauline Colinet        : FMM embedding                                 
  Dipayan Datta          : RHF DLPNO-CCSD density                        
  Achintya Kumar Dutta   : EOM-CC, STEOM-CC                              
  Nicolas Foglia         : Exact transition moments, OPA infrastructure, MCD improvements    
  Dmitry Ganyushin       : Spin-Orbit,Spin-Spin,Magnetic field MRCI      
  Miquel Garcia-Rates    : C-PCM and meta-GGA Hessian, CCSD/C-PCM, Gaussian charge scheme 
  Tiago L. C. Gouveia    : GS-ROHF, GS-ROCIS                             
  Yang Guo               : DLPNO-NEVPT2, F12-NEVPT2, CIM, IAO-localization        
  Andreas Hansen         : Spin unrestricted coupled pair/coupled cluster methods 
  Ingolf Harden          : AUTO-CI MPn and infrastructure                
  Benjamin Helmich-Paris : MC-RPA, TRAH-(SCF,CASSCF), AVAS, COSX integrals, SCF dyn. polar. 
  Lee Huntington         : MR-EOM, pCC                                   
  Robert Izsak           : Overlap fitted RIJCOSX, COSX-SCS-MP3, EOM     
  Riya Kayal             : Wick's Theorem for AUTO-CI, AUTO-CI UHF-CCSDT 
  Emily Kempfer          : AUTO-CI, RHF CISDT and CCSDT                  
  Christian Kollmar      : KDIIS, OOCD, Brueckner-CCSD(T), CCSD density, CASPT2, CASPT2-K, improved NEVPT2 
  Axel Koslowski         : Symmetry handling                             
  Simone Kossmann        : meta-GGA functionals, TD-DFT gradient, OOMP2, (MP2 Hessian; deprecated post 5.0) 
  Lucas Lang             : DCDCAS                                        
  Marvin Lechner         : AUTO-CI (C++ implementation), FIC-MRCC        
  Spencer Leger          : CASSCF response                               
  Dagmar Lenk            : GEPOL surface, SMD, ORCA-2-JSON               
  Dimitrios Liakos       : Extrapolation schemes; Compound Job, initial MDCI parallelization 
  Dimitrios Manganas     : Further ROCIS development; embedding schemes. LFT, Crystal Embedding 
  Dimitrios Pantazis     : SARC Basis sets                               
  Anastasios Papadopoulos: AUTO-CI, single reference methods and gradients 
  Taras Petrenko         : pre 6.0 DFT Hessian and TD-DFT gradient, (ASA, deprecated), ECA, 1-Electron XAS/XES, NRVS 
  Peter Pinski           : DLPNO-MP2, DLPNO-MP2 Gradient                 
  Christoph Reimann      : Effective Core Potentials                     
  Marius Retegan         : Local ZFS, SOC                                
  Christoph Riplinger    : Optimizer, TS searches, QM/MM, DLPNO-CCSD(T), (RO)-DLPNO pert. Triples 
  Michael Roemelt        : Original ROCIS implementation                 
  Masaaki Saitow         : Open-shell DLPNO-CCSD energy and density      
  Barbara Sandhoefer     : DKH picture change effects                    
  Kantharuban Sivalingam : CASSCF convergence/infrastructure, NEVPT2 and variants, FIC-MRCI 
  Bernardo de Souza      : ESD, SOC TD-DFT                               
  Georgi L. Stoychev     : AutoAux, RI-MP2 NMR, DLPNO-MP2 response, X2C  
  Van Anh Tran           : RI-MP2 g-tensors                              
  Willem Van den Heuvel  : Paramagnetic NMR                              
  Zikuan Wang            : NOTCH, Electric field optimization            
  Frank Wennmohs         : Technical directorship and infrastructure     
  Hang Xu                : AUTO-CI-Response properties                   
                                                                         
[FACCTs GmbH]                                                            
  Markus Bursch, Miquel Garcia-Rates, Christoph Riplinger, Bernardo de Souza, Georgi L. Stoychev 
                                                                 
  APM, Basis sets (HGBS, AHGBS, def-TZVP (Ac-Lr), def2-XVPD (La-Lu)), CI-OPT, improved COSX, DLPNO-Multilevel,           
  DOCKER, DRACO, updates on ESD, GOAT, IRC, LR-CPCM, MBIS, meta-GGA TD-DFT gradient, ML-optimized integration grids, 
  MM, NACMEs, nearIR, NEB, NEB-TS, NL-DFT gradient (VV10), 2- and 3-layer-ONIOM, interface openCOSMO-RS, QMMM,   
  Crystal-QMMM, SF, symmetry and pop. for TD-DFT, r2SCAN hybrids, SOLVATOR                                   
                                                                         
[Other institutions]                                                     
  V. Asgeirsson          : NEB                                           
  Christoph Bannwarth    : sTDA-DFT, sTD-DFT, PBEh-3c, B97-3c, D3        
  Sebastian Ehlert       : rSCAN, r2SCAN, r2SCAN-3c, D4, dhf basis sets  
  Marvin Friede          : D4 for Fr, Ra, Ac-Lr                          
  Lars Goerigk           : TD-DFT with DH, B97 family of functionals     
  Stefan Grimme          : VdW corrections, initial TS optimization, DFT functionals, gCP, sTDA/sTD-DF 
  Waldemar Hujo          : DFT-NL                                        
  H. Jonsson             : NEB                                           
  Holger Kruse           : gCP                                           
  Marcel Mueller         : wB97X-3c, vDZP basis set                      
  Hagen Neugebauer       : wr2SCAN                                       
  Tobias Risthaus        : range-separated hybrid DFT                    
  Lukas Wittmann         : regularized MP2, r2SCAN double-hybrids, wr2SCAN        
                                                                         
We gratefully acknowledge several colleagues who have allowed us to      
interface, adapt or use parts of their codes:                            
  Ed Valeev, F. Pavosevic, A. Kumar             : LibInt (2-el integral package), F12 methods 
  Garnet Chan, S. Sharma, J. Yang, R. Olivares  : DMRG                   
  Ulf Ekstrom                                   : XCFun DFT Library      
  Mihaly Kallay                                 : mrcc  (arbitrary order and MRCC methods)
  Frank Weinhold                                : gennbo (NPA and NBO analysis)           
  Simon Mueller                                 : openCOSMO-RS                            
  Christopher J. Cramer and Donald G. Truhlar   : smd solvation model                     
  S Lehtola, MJT Oliveira, MAL Marques          : LibXC Library                           
  Liviu Ungur et al                             : ANISO software                          


 Your calculation uses the libint2 library for the computation of 2-el integrals
 For citations please refer to: http://libint.valeyev.net

 Your ORCA version has been built with support for libXC version: 6.2.2
 For citations please refer to: https://libxc.gitlab.io

 This ORCA versions uses:
   CBLAS   interface :  Fast vector & matrix operations
   LAPACKE interface :  Fast linear algebra routines
   SCALAPACK package :  Parallel linear algebra routines
   Shared memory     :  Shared parallel matrices
   BLAS/LAPACK       :  OpenBLAS 0.3.27  USE64BITINT DYNAMIC_ARCH NO_AFFINITY SkylakeX SINGLE_THREADED
        Core in use  :  SkylakeX
   Copyright (c) 2011-2014, The OpenBLAS Project


NOTE: MaxCore=2000 MB was set to SCF,MP2,MDCI,CIPSI,MRCI and CIS
      => If you want to overwrite this, your respective input block should be placed after the MaxCore statement
Warning: RI is on but no J-basis has been assigned. Assigning Def2/J (nothing to worry about!)
================================================================================

----- Orbital basis set information -----
Your calculation utilizes the basis: def2-TZVPD
   F. Weigend and R. Ahlrichs, Phys. Chem. Chem. Phys. 7, 3297 (2005).
   D. Rappoport and F. Furche, J. Chem. Phys. 133, 134105 (2010)
   D. Rappoport, J. Chem. Phys. 155, 124102 (2021).

----- AuxJ basis set information -----
Your calculation utilizes the auxiliary basis: def2/J
   F. Weigend, Phys. Chem. Chem. Phys. 8, 1057 (2006).

================================================================================
                                        WARNINGS
                       Please study these warnings very carefully!
================================================================================

WARNING: Old DensityContainer found on disk!
         Will remove this file - 
         If you want to keep old densities, please start your calculation with a different basename. 


WARNING: Geometry Optimization
  ===> : Switching off AutoStart
         For restart on a previous wavefunction, please use MOREAD

================================================================================
                                       INPUT FILE
================================================================================
NAME = co2_freq.inp
|  1> ! B3LYP def2-TZVPD Opt NumFreq TightSCF
|  2> 
|  3> %maxcore 2000
|  4> 
|  5> %freq
|  6> Increment 0.001
|  7> end
|  8> 
|  9> %output
| 10>   PrintLevel 5
| 11> end
| 12> 
| 13> * xyz 0 1
| 14>   C          -0.00000229681799      0.00000001976635      0.00000000873661
| 15>   O           1.16004276990079     -0.00000000988324     -0.00000000436829
| 16>   O          -1.16004047308281     -0.00000000988311     -0.00000000436832
| 17> 
| 18> *
| 19> 
| 20>                          ****END OF INPUT****
================================================================================

                       *****************************
                       * Geometry Optimization Run *
                       *****************************

Geometry optimization settings:
Update method            Update   .... BFGS
Choice of coordinates    CoordSys .... (2022) Redundant Internals
Initial Hessian          InHess   .... Almloef's Model
Max. no of cycles        MaxIter  .... 50

Convergence Tolerances:
Energy Change            TolE     ....  5.0000e-06 Eh
Max. Gradient            TolMAXG  ....  3.0000e-04 Eh/bohr
RMS Gradient             TolRMSG  ....  1.0000e-04 Eh/bohr
Max. Displacement        TolMAXD  ....  4.0000e-03 bohr
RMS Displacement         TolRMSD  ....  2.0000e-03 bohr
Strict Convergence                .... False

------------------------------------------------------------------------------
                        ORCA OPTIMIZATION COORDINATE SETUP
------------------------------------------------------------------------------

The optimization will be done in redundant internal coordinates (2022)
Making redundant internal coordinates   ...  (2022 redundants) done
Evaluating the initial hessian          ...  (Almloef) done
Evaluating the coordinates              ...  done
Calculating the B-matrix                .... done
Calculating the G-matrix                .... done
Diagonalizing the G-matrix              .... done
The first mode is                       ....    0
The number of degrees of freedom        ....    4

    -----------------------------------------------------------------
                    Redundant Internal Coordinates


    -----------------------------------------------------------------
         Definition                    Initial Value    Approx d2E/dq
    -----------------------------------------------------------------
      1. B(O   1,C   0)                  1.1600         1.302428   
      2. B(O   2,C   0)                  1.1600         1.302461   
      3. L(O   1,C   0,O   2, 2)       180.0000         0.563956   
      4. L(O   1,C   0,O   2, 1)       180.0000         0.563956   
    -----------------------------------------------------------------

Number of atoms                         .... 3
Number of degrees of freedom            .... 4


         *************************************************************
         *                GEOMETRY OPTIMIZATION CYCLE   1            *
         *************************************************************
---------------------------------
CARTESIAN COORDINATES (ANGSTROEM)
---------------------------------
  C     -0.000002    0.000000    0.000000
  O      1.160043   -0.000000   -0.000000
  O     -1.160040   -0.000000   -0.000000

----------------------------
CARTESIAN COORDINATES (A.U.)
----------------------------
  NO LB      ZA    FRAG     MASS         X           Y           Z
   0 C     6.0000    0    12.011   -0.000004    0.000000    0.000000
   1 O     8.0000    0    15.999    2.192163   -0.000000   -0.000000
   2 O     8.0000    0    15.999   -2.192159   -0.000000   -0.000000

--------------------------------
INTERNAL COORDINATES (ANGSTROEM)
--------------------------------
 C      0   0   0     0.000000000000     0.00000000     0.00000000
 O      1   0   0     1.160045066719     0.00000000     0.00000000
 O      1   2   0     1.160038176265   179.99999658     0.00000000

---------------------------
INTERNAL COORDINATES (A.U.)
---------------------------
 C      0   0   0     0.000000000000     0.00000000     0.00000000
 O      1   0   0     2.192167479105     0.00000000     0.00000000
 O      1   2   0     2.192154458034   179.99999658     0.00000000

---------------------
BASIS SET INFORMATION
---------------------
There are 2 groups of distinct atoms

 Group   1 Type C   : 12s6p3d1f contracted to 6s3p3d1f pattern {621111/411/111/1}
 Group   2 Type O   : 12s7p3d1f contracted to 6s4p3d1f pattern {621111/4111/111/1}

Atom   0C    basis set group =>   1
Atom   1O    basis set group =>   2
Atom   2O    basis set group =>   2

-------------------------
BASIS SET IN INPUT FORMAT
-------------------------

 # Basis set for element : C 
 NewGTO C 
 S 6 
   1   13575.3496820000      0.0006064549
   2    2035.2333680000      0.0046979088
   3     463.2256235900      0.0243324776
   4     131.2001959800      0.0973999683
   5      42.8530158910      0.3019558425
   6      15.5841857660      0.6623360915
 S 2 
   1       6.2067138508      0.6559530854
   2       2.5764896527      0.3758563329
 S 1 
   1       0.5769633942      1.0000000000
 S 1 
   1       0.2297283136      1.0000000000
 S 1 
   1       0.0951644400      1.0000000000
 P 4 
   1      34.6972322440      0.0113272200
   2       7.9582622826      0.0761696592
   3       2.3780826883      0.3019225220
   4       0.8143320818      0.7278502735
 P 1 
   1       0.2888754725      1.0000000000
 P 1 
   1       0.1005682367      1.0000000000
 D 1 
   1       1.0970000000      1.0000000000
 D 1 
   1       0.3180000000      1.0000000000
 F 1 
   1       0.7610000000      1.0000000000
 S 1 
   1       0.0484754014      1.0000000000
 D 1 
   1       0.0909853364      1.0000000000
  end;

 # Basis set for element : O 
 NewGTO O 
 S 6 
   1   27032.3826310000      0.0005722733
   2    4052.3871392000      0.0044353233
   3     922.3272271000      0.0230201076
   4     261.2407098900      0.0928224906
   5      85.3546413510      0.2937850002
   6      31.0350352450      0.6740160450
 S 2 
   1      12.2608607280      0.6383993702
   2       4.9987076005      0.3953458713
 S 1 
   1       1.1703108158      1.0000000000
 S 1 
   1       0.4647474099      1.0000000000
 S 1 
   1       0.1850453636      1.0000000000
 P 4 
   1      63.2749548010      0.0120183321
   2      14.6270493790      0.0830054217
   3       4.4501223456      0.3199174393
   4       1.5275799647      0.7071554292
 P 1 
   1       0.5293511794      1.0000000000
 P 1 
   1       0.1747842127      1.0000000000
 D 1 
   1       2.3140000000      1.0000000000
 D 1 
   1       0.6450000000      1.0000000000
 F 1 
   1       1.4280000000      1.0000000000
 S 1 
   1       0.0702880263      1.0000000000
 P 1 
   1       0.0511127457      1.0000000000
 D 1 
   1       0.1469647737      1.0000000000
  end;

---------------------------------
AUXILIARY/J BASIS SET INFORMATION
---------------------------------
There are 2 groups of distinct atoms

 Group   1 Type C   : 12s5p4d2f1g contracted to 6s4p3d1f1g pattern {711111/2111/211/2/1}
 Group   2 Type O   : 12s5p4d2f1g contracted to 6s4p3d1f1g pattern {711111/2111/211/2/1}

Atom   0C    basis set group =>   1
Atom   1O    basis set group =>   2
Atom   2O    basis set group =>   2

-------------------------------------
AUXILIARY/J BASIS SET IN INPUT FORMAT
-------------------------------------

 # Auxiliary/J basis set for element : C 
 NewAuxJGTO C 
 S 7 
   1    1861.0916331000      0.0134602335
   2     642.9939764000      0.0299160374
   3     235.1105725000      0.1008649584
   4      90.7028894000      0.2370970548
   5      36.7794552000      0.3924037254
   6      15.6046273000      0.3195862154
   7       6.8907294000      0.0530104441
 S 1 
   1       3.1478850000     -1.0000000000
 S 1 
   1       1.4777287000      1.0000000000
 S 1 
   1       0.7076466000      1.0000000000
 S 1 
   1       0.3430122000      1.0000000000
 S 1 
   1       0.1669453000      1.0000000000
 P 2 
   1      13.5472892000     -0.6769313712
   2       5.4669419000     -0.3779500978
 P 1 
   1       2.1751721000      1.0000000000
 P 1 
   1       0.8582194000      1.0000000000
 P 1 
   1       0.3376720000      1.0000000000
 D 2 
   1       5.9287253000     -0.3533329857
   2       1.9809209000     -0.7456525731
 D 1 
   1       0.8055417000     -1.0000000000
 D 1 
   1       0.3531244000     -1.0000000000
 F 2 
   1       1.6755626000      0.6311076882
   2       0.5997536000      0.4968166032
 G 1 
   1       1.0024600000     -1.0000000000
  end;

 # Auxiliary/J basis set for element : O 
 NewAuxJGTO O 
 S 7 
   1    2876.8216605000      0.0168151159
   2    1004.7443032000      0.0340137548
   3     369.7579954000      0.1194951309
   4     142.9442404000      0.2664627624
   5      57.8366425000      0.4202764046
   6      24.3864983000      0.2765077335
   7      10.6622662000      0.0057008815
 S 1 
   1       4.8070437000     -1.0000000000
 S 1 
   1       2.2210770000      1.0000000000
 S 1 
   1       1.0447795000      1.0000000000
 S 1 
   1       0.4968425000      1.0000000000
 S 1 
   1       0.2371384000      1.0000000000
 P 2 
   1      64.2613382000     -0.2731534179
   2      16.3006076000     -0.8168011598
 P 1 
   1       4.3550542000      1.0000000000
 P 1 
   1       1.2019554000      1.0000000000
 P 1 
   1       0.3354196000      1.0000000000
 D 2 
   1       9.2146611000     -0.4661230638
   2       2.8435251000     -0.6600908911
 D 1 
   1       0.9955759000     -1.0000000000
 D 1 
   1       0.3649441000     -1.0000000000
 F 2 
   1       2.6420115000      0.5931563945
   2       0.7345613000      0.5931563945
 G 1 
   1       1.3931000000     -1.0000000000
  end;

------------------------------------------------------------------------------
                             ORCA STARTUP CALCULATIONS
                           -- RI-GTO INTEGRALS CHOSEN --
------------------------------------------------------------------------------
------------------------------------------------------------------------------
                   ___                                                        
                  /   \      - P O W E R E D   B Y -                         
                 /     \                                                     
                 |  |  |   _    _      __       _____    __    __             
                 |  |  |  | |  | |    /  \     |  _  \  |  |  /  |          
                  \  \/   | |  | |   /    \    | | | |  |  | /  /          
                 / \  \   | |__| |  /  /\  \   | |_| |  |  |/  /          
                |  |  |   |  __  | /  /__\  \  |    /   |      \           
                |  |  |   | |  | | |   __   |  |    \   |  |\   \          
                \     /   | |  | | |  |  |  |  | |\  \  |  | \   \       
                 \___/    |_|  |_| |__|  |__|  |_| \__\ |__|  \__/        
                                                                              
                      - O R C A' S   B I G   F R I E N D -                    
                                      &                                       
                       - I N T E G R A L  F E E D E R -                       
                                                                              
 v1 FN, 2020, v2 2021, v3 2022-2024                                           
------------------------------------------------------------------------------


----------------------
SHARK INTEGRAL PACKAGE
----------------------

Number of atoms                             ...      3
Number of basis functions                   ...    117
Number of shells                            ...     41
Maximum angular momentum                    ...      3
Integral batch strategy                     ... SHARK/LIBINT Hybrid
RI-J (if used) integral strategy            ... SPLIT-RIJ (Revised 2003 algorithm where possible)
Printlevel                                  ...      1
Contraction scheme used                     ... SEGMENTED contraction
Prescreening option                         ... SCHWARTZ
   Thresh                                   ... 2.500e-11
   Tcut                                     ... 2.500e-12
   Tpresel                                  ... 2.500e-12 
Coulomb Range Separation                    ... NOT USED
Exchange Range Separation                   ... NOT USED
Multipole approximations                    ... NOT USED
Finite Nucleus Model                        ... NOT USED
CABS basis                                  ... NOT available
Auxiliary Coulomb fitting basis             ... AVAILABLE
   # of basis functions in Aux-J            ...    147
   # of shells in Aux-J                     ...     45
   Maximum angular momentum in Aux-J        ...      4
Auxiliary J/K fitting basis                 ... NOT available
Auxiliary Correlation fitting basis         ... NOT available
Auxiliary 'external' fitting basis          ... NOT available

Checking pre-screening integrals            ... done (  0.0 sec) Dimension = 41
Check shell pair data                       ... done (  0.0 sec)
Shell pair information
Shell pair cut-off parameter TPreSel        ...   2.5e-12
Total number of shell pairs                 ...       861
Shell pairs after pre-screening             ...       849
Total number of primitive shell pairs       ...      2412
Primitive shell pairs kept                  ...      2119
          la=0 lb=0:    165 shell pairs
          la=1 lb=0:    196 shell pairs
          la=1 lb=1:     66 shell pairs
          la=2 lb=0:    158 shell pairs
          la=2 lb=1:     99 shell pairs
          la=2 lb=2:     45 shell pairs
          la=3 lb=0:     54 shell pairs
          la=3 lb=1:     33 shell pairs
          la=3 lb=2:     27 shell pairs
          la=3 lb=3:      6 shell pairs

Calculating one electron integrals          ... done (  0.0 sec)
Calculating RI/J V-Matrix + Cholesky decomp.... done (  0.0 sec)
Calculating Nuclear repulsion               ... done (  0.0 sec) ENN=     58.389872749343 Eh

Diagonalization of the overlap matrix:
Smallest eigenvalue                        ... 1.004e-04
Time for diagonalization                   ...    0.001 sec
Threshold for overlap eigenvalues          ... 1.000e-07
Number of eigenvalues below threshold      ... 0
Time for construction of square roots      ...    0.000 sec
Total time needed                          ...    0.002 sec

-------------------
DFT GRID GENERATION
-------------------

General Integration Accuracy     IntAcc      ... 4.388
Radial Grid Type                 RadialGrid  ... OptM3 with GC (2021)
Angular Grid (max. ang.)         AngularGrid ... 4 (Lebedev-302)
Angular grid pruning method      GridPruning ... 4 (adaptive)
Weight generation scheme         WeightScheme... mBecke (2022)
Basis function cutoff            BFCut       ... 1.0000e-11
Integration weight cutoff        WCut        ... 1.0000e-14
Partially contracted basis set               ... off
Rotationally invariant grid construction     ... off
Angular grids for H and He will be reduced by one unit
Diffuse basis detected: some atoms will have their outermost
                        angular grid increased by 1.

Total number of grid points                  ...    19300
Total number of batches                      ...      302
Average number of points per batch           ...       63
Average number of grid points per atom       ...     6433

--------------------
COSX GRID GENERATION
--------------------

GRIDX 1
-------
General Integration Accuracy     IntAcc      ... 3.816
Radial Grid Type                 RadialGrid  ... OptM3 with GC (2021)
Angular Grid (max. ang.)         AngularGrid ... 1 (Lebedev-50)
Angular grid pruning method      GridPruning ... 4 (adaptive)
Weight generation scheme         WeightScheme... mBecke (2022)
Basis function cutoff            BFCut       ... 1.0000e-11
Integration weight cutoff        WCut        ... 1.0000e-14
Partially contracted basis set               ... on
Rotationally invariant grid construction     ... off
Angular grids for H and He will be reduced by one unit
Diffuse basis detected: some atoms will have their outermost
                        angular grid increased by 1.

Total number of grid points                  ...     2436
Total number of batches                      ...       20
Average number of points per batch           ...      121
Average number of grid points per atom       ...      812
UseSFitting                                  ... on

GRIDX 2
-------
General Integration Accuracy     IntAcc      ... 4.020
Radial Grid Type                 RadialGrid  ... OptM3 with GC (2021)
Angular Grid (max. ang.)         AngularGrid ... 2 (Lebedev-110)
Angular grid pruning method      GridPruning ... 4 (adaptive)
Weight generation scheme         WeightScheme... mBecke (2022)
Basis function cutoff            BFCut       ... 1.0000e-11
Integration weight cutoff        WCut        ... 1.0000e-14
Partially contracted basis set               ... on
Rotationally invariant grid construction     ... off
Angular grids for H and He will be reduced by one unit
Diffuse basis detected: some atoms will have their outermost
                        angular grid increased by 1.

Total number of grid points                  ...     6852
Total number of batches                      ...       54
Average number of points per batch           ...      126
Average number of grid points per atom       ...     2284
UseSFitting                                  ... on

GRIDX 3
-------
General Integration Accuracy     IntAcc      ... 4.338
Radial Grid Type                 RadialGrid  ... OptM3 with GC (2021)
Angular Grid (max. ang.)         AngularGrid ... 3 (Lebedev-194)
Angular grid pruning method      GridPruning ... 4 (adaptive)
Weight generation scheme         WeightScheme... mBecke (2022)
Basis function cutoff            BFCut       ... 1.0000e-11
Integration weight cutoff        WCut        ... 1.0000e-14
Partially contracted basis set               ... on
Rotationally invariant grid construction     ... off
Angular grids for H and He will be reduced by one unit
Diffuse basis detected: some atoms will have their outermost
                        angular grid increased by 1.

Total number of grid points                  ...    14796
Total number of batches                      ...      116
Average number of points per batch           ...      127
Average number of grid points per atom       ...     4932
UseSFitting                                  ... on
Initializing property integral containers    ... done (  0.0 sec)

SHARK setup successfully completed in   0.2 seconds

Maximum memory used throughout the entire STARTUP-calculation: 13.8 MB
-------------------------------------------------------------------------------
                                 ORCA GUESS
                   Start orbitals & Density for SCF / CASSCF
-------------------------------------------------------------------------------

------------
SCF SETTINGS
------------
Hamiltonian:
 Density Functional     Method          .... DFT(GTOs)
 Exchange Functional    Exchange        .... B88
   X-Alpha parameter    XAlpha          ....  0.666667
   Becke's b parameter  XBeta           ....  0.004200
 Correlation Functional Correlation     .... LYP
 LDA part of GGA corr.  LDAOpt          .... VWN-5
 Gradients option       PostSCFGGA      .... off
 Hybrid DFT is turned on
   Fraction HF Exchange ScalHFX         ....  0.200000
   Scaling of DF-GGA-X  ScalDFX         ....  0.720000
   Scaling of DF-GGA-C  ScalDFC         ....  0.810000
   Scaling of DF-LDA-C  ScalLDAC        ....  1.000000
   Perturbative correction              ....  0.000000
   NL short-range parameter             ....  4.800000
 RI-approximation to the Coulomb term is turned on
   Number of AuxJ basis functions       .... 147
   RIJ-COSX (HFX calculated with COS-X)).... on


General Settings:
 Integral files         IntName         .... co2_freq
 Hartree-Fock type      HFTyp           .... RHF
 Total Charge           Charge          ....    0
 Multiplicity           Mult            ....    1
 Number of Electrons    NEL             ....   22
 Basis Dimension        Dim             ....  117
 Nuclear Repulsion      ENuc            ....     58.3898727493 Eh

Convergence Acceleration:
 AO-DIIS                CNVDIIS         .... on
   Start iteration      DIISMaxIt       ....    12
   Startup error        DIISStart       ....  0.200000
   # of expansion vecs  DIISMaxEq       ....     5
   Bias factor          DIISBfac        ....   1.050
   Max. coefficient     DIISMaxC        ....  10.000
 MO-DIIS                CNVKDIIS        .... off
 Trust-Rad. Augm. Hess. CNVTRAH         .... auto
   Auto Start mean grad. ratio tolernc. ....  1.125000
   Auto Start start iteration           ....    50
   Auto Start num. interpolation iter.  ....    10
   Max. Number of Micro iterations      ....    24
   Max. Number of Macro iterations      .... Maxiter - #DIIS iter
   Number of Davidson start vectors     ....     2
   Converg. threshold    (grad. norm)   ....   1.000e-05
   Grad. Scal. Fac. for Micro threshold ....   0.100
   Minimum threshold for Micro iter.    ....   1.000e-02
   NR start threshold (gradient norm)   ....   1.000e-04
   Initial trust radius                 ....   0.400
   Minimum AH scaling param. (alpha)    ....   1.000
   Maximum AH scaling param. (alpha)    .... 1000.000
   Quad. conv. algorithm                .... NR
   White noise on init. David. guess    .... on
   Maximum white noise                  ....   0.010
   Pseudo random numbers                .... off
   Inactive MOs                         .... canonical
   Orbital update algorithm             .... Taylor
   Preconditioner                       .... Diag
   Full preconditioner red. dimension   ....   250
 SOSCF                  CNVSOSCF        .... on
   Start iteration      SOSCFMaxIt      ....   150
   Startup grad/error   SOSCFStart      ....  0.003300
   Hessian update       SOSCFHessUp     .... L-BFGS
 Level Shifting         CNVShift        .... on
   Level shift para.    LevelShift      ....    0.2500
   Turn off err/grad.   ShiftErr        ....    0.0010
 Zerner damping         CNVZerner       .... off
 Static damping         CNVDamp         .... on
   Fraction old density DampFac         ....    0.7000
   Max. Damping (<1)    DampMax         ....    0.9800
   Min. Damping (>=0)   DampMin         ....    0.0000
   Turn off err/grad.   DampErr         ....    0.1000

SCF Procedure:
 Maximum # iterations   MaxIter         ....   125
 SCF integral mode      SCFMode         .... Direct
   Integral package                     .... SHARK and LIBINT hybrid scheme
 Reset frequency        DirectResetFreq ....    20
 Integral Threshold     Thresh          ....  2.500e-11 Eh
 Primitive CutOff       TCut            ....  2.500e-12 Eh

Convergence Tolerance:
 Convergence Check Mode ConvCheckMode   .... Total+1el-Energy
 Convergence forced     ConvForced      .... 0
 Energy Change          TolE            ....  1.000e-08 Eh
 1-El. energy change                    ....  1.000e-05 Eh
 Orbital Gradient       TolG            ....  1.000e-05
 Orbital Rotation angle TolX            ....  1.000e-05
 DIIS Error             TolErr          ....  5.000e-07

------------------------------
INITIAL GUESS: MODEL POTENTIAL
------------------------------
Loading Hartree-Fock densities                     ... done
Calculating cut-offs                               ... done
Initializing the effective Hamiltonian             ... done
Setting up the integral package (SHARK)            ... done
Starting the Coulomb interaction                   ... done (   0.0 sec)
Making the grid                                    ... done (   0.0 sec)
Mapping shells                                     ... done
Starting the XC term evaluation                    ... done (   0.0 sec)
  promolecular density results
     # of electrons  =     22.000068944
     EX              =    -21.510772135
     EC              =     -0.787311599
     EX+EC           =    -22.298083734
Transforming the Hamiltonian                       ... done (   0.0 sec)
Diagonalizing the Hamiltonian                      ... done (   0.0 sec)
Back transforming the eigenvectors                 ... done (   0.0 sec)
Now organizing SCF variables                       ... done
                      ------------------
                      INITIAL GUESS DONE (   0.1 sec)
                      ------------------
----------------------
INITIAL GUESS ORBITALS
----------------------
                      0         1         2         3         4         5   
                 -19.00937 -19.00935 -10.10109  -1.13178  -1.10746  -0.57994
                   2.00000   2.00000   2.00000   2.00000   2.00000   2.00000
                  --------  --------  --------  --------  --------  --------
  0C   1s        -0.000038  0.000003  0.467422 -0.072594 -0.000008 -0.065555
  0C   2s         0.000226 -0.000015  0.605174 -0.149625 -0.000016 -0.140124
  0C   3s         0.006434 -0.000436  0.056011  0.268922  0.000030  0.259136
  0C   4s        -0.052934  0.003584 -0.055769  0.007034 -0.000002  0.227105
  0C   5s         0.012100 -0.000819  0.036184 -0.044958 -0.000008  0.052693
  0C   1pz        0.000000 -0.000000 -0.000000 -0.000000  0.000000 -0.000000
  0C   1px        0.000092  0.001353 -0.000000 -0.000030  0.247829 -0.000006
  0C   1py        0.000000 -0.000000 -0.000000 -0.000000 -0.000000 -0.000000
  0C   2pz        0.000000 -0.000000 -0.000000 -0.000000 -0.000000 -0.000000
  0C   2px       -0.000200 -0.002956 -0.000000 -0.000019  0.155356 -0.000005
  0C   2py        0.000000 -0.000000 -0.000000 -0.000000  0.000000 -0.000000
  0C   3pz       -0.000000  0.000000 -0.000000  0.000000 -0.000000 -0.000000
  0C   3px       -0.001654 -0.024427 -0.000000  0.000002 -0.015065 -0.000001
  0C   3py       -0.000000  0.000000 -0.000000  0.000000  0.000000 -0.000000
  0C   1dz2       0.000846 -0.000057 -0.003539 -0.017553 -0.000002 -0.010410
  0C   1dxz      -0.000000 -0.000000  0.000000  0.000000 -0.000000  0.000000
  0C   1dyz      -0.000000  0.000000 -0.000000 -0.000000 -0.000000  0.000000
  0C   1dx2y2    -0.001466  0.000099  0.006130  0.030403  0.000003  0.018031
  0C   1dxy      -0.000000 -0.000000  0.000000  0.000000 -0.000000  0.000000
  0C   2dz2       0.009303 -0.000630 -0.001640  0.007569  0.000001 -0.004765
  0C   2dxz      -0.000000 -0.000000 -0.000000 -0.000000 -0.000000 -0.000000
  0C   2dyz       0.000000 -0.000000  0.000000  0.000000  0.000000 -0.000000
  0C   2dx2y2    -0.016113  0.001091  0.002840 -0.013109 -0.000002  0.008253
  0C   2dxy      -0.000000 -0.000000 -0.000000  0.000000 -0.000000  0.000000
  0C   1f0        0.000000 -0.000000  0.000000  0.000000 -0.000000  0.000000
  0C   1f+1       0.000082  0.001209  0.000000  0.000002 -0.014749  0.000000
  0C   1f-1       0.000000 -0.000000  0.000000  0.000000  0.000000  0.000000
  0C   1f+2      -0.000000  0.000000 -0.000000 -0.000000  0.000000 -0.000000
  0C   1f-2       0.000000  0.000000  0.000000  0.000000 -0.000000 -0.000000
  0C   1f+3       0.000106  0.001561  0.000000  0.000002 -0.019041  0.000000
  0C   1f-3       0.000000 -0.000000  0.000000  0.000000  0.000000  0.000000
  0C   6s         0.003831 -0.000259  0.017114 -0.011056 -0.000002  0.004450
  0C   3dz2      -0.003293  0.000223 -0.005888  0.002803  0.000001 -0.004950
  0C   3dxz       0.000000  0.000000 -0.000000 -0.000000  0.000000 -0.000000
  0C   3dyz       0.000000 -0.000000  0.000000  0.000000  0.000000 -0.000000
  0C   3dx2y2     0.005704 -0.000386  0.010199 -0.004855 -0.000001  0.008574
  0C   3dxy       0.000000  0.000000 -0.000000 -0.000000  0.000000 -0.000000
  1O   1s        -0.286518  0.328123 -0.000092 -0.065639 -0.070031  0.041358
  1O   2s        -0.419705  0.480812 -0.000329 -0.153184 -0.163472  0.097365
  1O   3s        -0.028619  0.029664  0.004162  0.235018  0.254724 -0.149555
  1O   4s         0.038500 -0.022706 -0.011433  0.288447  0.260373 -0.234269
  1O   5s        -0.003246  0.024024  0.000258  0.116155  0.046369 -0.177556
  1O   1pz       -0.000000  0.000000  0.000000  0.000000  0.000000  0.000000
  1O   1px        0.001841 -0.001806 -0.001047 -0.102688 -0.106714 -0.275625
  1O   1py       -0.000000  0.000000  0.000000  0.000000  0.000000  0.000000
  1O   2pz        0.000000  0.000000 -0.000000  0.000000  0.000000  0.000000
  1O   2px       -0.011082  0.001791  0.009739 -0.076267 -0.046984 -0.183092
  1O   2py        0.000000  0.000000 -0.000000  0.000000  0.000000  0.000000
  1O   3pz        0.000000  0.000000  0.000000  0.000000 -0.000000  0.000000
  1O   3px       -0.005451 -0.003606 -0.011080 -0.028724  0.021141 -0.072370
  1O   3py        0.000000  0.000000  0.000000  0.000000 -0.000000  0.000000
  1O   1dz2       0.000125 -0.000232 -0.000001 -0.003122 -0.003320 -0.003604
  1O   1dxz       0.000000 -0.000000 -0.000000 -0.000000 -0.000000 -0.000000
  1O   1dyz      -0.000000 -0.000000 -0.000000 -0.000000 -0.000000  0.000000
  1O   1dx2y2    -0.000216  0.000402  0.000001  0.005408  0.005751  0.006243
  1O   1dxy       0.000000 -0.000000 -0.000000 -0.000000 -0.000000 -0.000000
  1O   2dz2      -0.001145  0.000227  0.002483 -0.005336 -0.002165 -0.003165
  1O   2dxz      -0.000000 -0.000000  0.000000 -0.000000  0.000000 -0.000000
  1O   2dyz       0.000000  0.000000  0.000000  0.000000  0.000000 -0.000000
  1O   2dx2y2     0.001983 -0.000393 -0.004301  0.009242  0.003750  0.005482
  1O   2dxy      -0.000000 -0.000000  0.000000 -0.000000  0.000000 -0.000000
  1O   1f0       -0.000000 -0.000000  0.000000 -0.000000 -0.000000 -0.000000
  1O   1f+1       0.000180 -0.000023 -0.000927  0.001107  0.001432  0.000981
  1O   1f-1      -0.000000 -0.000000  0.000000 -0.000000 -0.000000 -0.000000
  1O   1f+2       0.000000  0.000000 -0.000000  0.000000  0.000000  0.000000
  1O   1f-2      -0.000000 -0.000000  0.000000  0.000000 -0.000000 -0.000000
  1O   1f+3       0.000233 -0.000030 -0.001196  0.001430  0.001848  0.001266
  1O   1f-3      -0.000000 -0.000000  0.000000 -0.000000 -0.000000 -0.000000
  1O   6s        -0.001380  0.011687 -0.015976  0.020582 -0.002558 -0.016880
  1O   4pz        0.000000 -0.000000 -0.000000  0.000000 -0.000000  0.000000
  1O   4px       -0.001154 -0.001782 -0.000457 -0.002745  0.001999 -0.005226
  1O   4py        0.000000 -0.000000 -0.000000  0.000000 -0.000000  0.000000
  1O   3dz2      -0.000469  0.000473 -0.002520 -0.002253  0.004624 -0.000775
  1O   3dxz      -0.000000 -0.000000 -0.000000 -0.000000  0.000000 -0.000000
  1O   3dyz      -0.000000  0.000000 -0.000000 -0.000000 -0.000000  0.000000
  1O   3dx2y2     0.000812 -0.000819  0.004364  0.003903 -0.008010  0.001343
  1O   3dxy      -0.000000 -0.000000 -0.000000 -0.000000  0.000000 -0.000000
  2O   1s        -0.328138 -0.286501 -0.000092 -0.065655  0.070016  0.041360
  2O   2s        -0.480694 -0.419841 -0.000329 -0.153222  0.163436  0.097370
  2O   3s        -0.032357 -0.025535  0.004162  0.235077 -0.254670 -0.149562
  2O   4s         0.041210  0.017309 -0.011434  0.288504 -0.260303 -0.234281
  2O   5s        -0.006455 -0.023367  0.000258  0.116164 -0.046338 -0.177567
  2O   1pz       -0.000000 -0.000000  0.000000  0.000000 -0.000000  0.000000
  2O   1px       -0.002068 -0.001541  0.001047  0.102714 -0.106692  0.275641
  2O   1py       -0.000000 -0.000000  0.000000  0.000000 -0.000000  0.000000
  2O   2pz        0.000000 -0.000000 -0.000000  0.000000 -0.000000  0.000000
  2O   2px        0.011222  0.000281 -0.009739  0.076278 -0.046965  0.183101
  2O   2py        0.000000 -0.000000 -0.000000  0.000000 -0.000000  0.000000
  2O   3pz        0.000000 -0.000000  0.000000  0.000000  0.000000  0.000000
  2O   3px        0.004915 -0.004307  0.011080  0.028719  0.021149  0.072372
  2O   3py        0.000000 -0.000000  0.000000  0.000000  0.000000  0.000000
  2O   1dz2       0.000155  0.000213 -0.000001 -0.003123  0.003320 -0.003605
  2O   1dxz      -0.000000 -0.000000  0.000000  0.000000 -0.000000  0.000000
  2O   1dyz      -0.000000 -0.000000  0.000000 -0.000000 -0.000000  0.000000
  2O   1dx2y2    -0.000269 -0.000369  0.000001  0.005409 -0.005750  0.006243
  2O   1dxy      -0.000000 -0.000000  0.000000  0.000000 -0.000000  0.000000
  2O   2dz2      -0.001165 -0.000070  0.002483 -0.005336  0.002164 -0.003165
  2O   2dxz       0.000000 -0.000000 -0.000000  0.000000  0.000000  0.000000
  2O   2dyz       0.000000  0.000000 -0.000000  0.000000  0.000000 -0.000000
  2O   2dx2y2     0.002018  0.000122 -0.004301  0.009242 -0.003747  0.005482
  2O   2dxy       0.000000 -0.000000 -0.000000  0.000000  0.000000  0.000000
  2O   1f0       -0.000000  0.000000  0.000000 -0.000000  0.000000 -0.000000
  2O   1f+1      -0.000182  0.000001  0.000927 -0.001108  0.001431 -0.000981
  2O   1f-1      -0.000000  0.000000  0.000000 -0.000000  0.000000 -0.000000
  2O   1f+2       0.000000 -0.000000 -0.000000  0.000000 -0.000000  0.000000
  2O   1f-2      -0.000000  0.000000 -0.000000 -0.000000 -0.000000  0.000000
  2O   1f+3      -0.000235  0.000002  0.001196 -0.001430  0.001848 -0.001266
  2O   1f-3      -0.000000  0.000000  0.000000 -0.000000  0.000000 -0.000000
  2O   6s        -0.002943 -0.011394 -0.015977  0.020581  0.002565 -0.016881
  2O   4pz        0.000000  0.000000 -0.000000  0.000000  0.000000 -0.000000
  2O   4px        0.000903 -0.001921  0.000457  0.002745  0.002000  0.005226
  2O   4py        0.000000  0.000000 -0.000000  0.000000  0.000000 -0.000000
  2O   3dz2      -0.000528 -0.000406 -0.002520 -0.002252 -0.004625 -0.000775
  2O   3dxz       0.000000 -0.000000  0.000000  0.000000  0.000000  0.000000
  2O   3dyz      -0.000000  0.000000 -0.000000 -0.000000 -0.000000  0.000000
  2O   3dx2y2     0.000915  0.000702  0.004364  0.003901  0.008011  0.001342
  2O   3dxy       0.000000 -0.000000  0.000000  0.000000  0.000000  0.000000
                      6         7         8         9        10        11   
                  -0.55163  -0.51102  -0.51102  -0.40761  -0.40761  -0.04251
                   2.00000   2.00000   2.00000   2.00000   2.00000   0.00000
                  --------  --------  --------  --------  --------  --------
  0C   1s         0.000002  0.000000 -0.000000  0.000000  0.000000 -0.024103
  0C   2s         0.000004  0.000000 -0.000000  0.000000 -0.000000 -0.051884
  0C   3s        -0.000007 -0.000000  0.000000  0.000000 -0.000000  0.032999
  0C   4s        -0.000003  0.000000 -0.000000 -0.000000  0.000000  0.418589
  0C   5s         0.000001  0.000000 -0.000000 -0.000000  0.000000  2.058969
  0C   1pz       -0.000000 -0.254642 -0.096061  0.000002  0.000001  0.000004
  0C   1px       -0.254564  0.000000  0.000000 -0.000000  0.000000  0.000002
  0C   1py        0.000000 -0.096061  0.254642  0.000001 -0.000002  0.000010
  0C   2pz       -0.000000 -0.173945 -0.065619  0.000002  0.000001  0.000004
  0C   2px       -0.206827 -0.000000 -0.000000  0.000000 -0.000000  0.000000
  0C   2py       -0.000000 -0.065619  0.173945  0.000001 -0.000002  0.000009
  0C   3pz        0.000000 -0.016579 -0.006254  0.000000  0.000000  0.000003
  0C   3px       -0.012681 -0.000000 -0.000000  0.000000 -0.000000 -0.000004
  0C   3py       -0.000000 -0.006254  0.016579  0.000000 -0.000000  0.000007
  0C   1dz2       0.000000  0.000000  0.000000  0.000000 -0.000000  0.021539
  0C   1dxz       0.000000  0.000001  0.000000  0.030221  0.015496  0.000000
  0C   1dyz       0.000000  0.000000 -0.000000  0.000000 -0.000000 -0.000000
  0C   1dx2y2    -0.000000 -0.000000  0.000000 -0.000000  0.000000 -0.037306
  0C   1dxy       0.000000  0.000000 -0.000001  0.015496 -0.030221 -0.000000
  0C   2dz2      -0.000000 -0.000000  0.000000  0.000000 -0.000000 -0.017340
  0C   2dxz       0.000000  0.000001  0.000000  0.032217  0.016520 -0.000000
  0C   2dyz      -0.000000  0.000000 -0.000000 -0.000000  0.000000  0.000000
  0C   2dx2y2     0.000001  0.000000 -0.000000 -0.000000  0.000000  0.030034
  0C   2dxy       0.000000  0.000000 -0.000001  0.016520 -0.032217  0.000000
  0C   1f0        0.000000  0.011684  0.004408 -0.000000 -0.000000  0.000000
  0C   1f+1       0.013305  0.000000  0.000000 -0.000000 -0.000000 -0.000000
  0C   1f-1       0.000000  0.001801 -0.004773 -0.000000  0.000000  0.000000
  0C   1f+2      -0.000000 -0.015088 -0.005692  0.000000  0.000000 -0.000000
  0C   1f-2      -0.000000 -0.000000  0.000000 -0.000000 -0.000000 -0.000000
  0C   1f+3       0.017177  0.000000  0.000000 -0.000000  0.000000 -0.000000
  0C   1f-3       0.000000  0.006970 -0.018476 -0.000000  0.000000  0.000000
  0C   6s         0.000001 -0.000000 -0.000000 -0.000000  0.000000  3.401386
  0C   3dz2      -0.000000 -0.000000  0.000000  0.000000 -0.000000 -0.206396
  0C   3dxz       0.000000 -0.000000 -0.000000 -0.006988 -0.003583 -0.000000
  0C   3dyz      -0.000000 -0.000000 -0.000000  0.000000  0.000000 -0.000000
  0C   3dx2y2     0.000000  0.000000 -0.000000 -0.000000  0.000000  0.357488
  0C   3dxy       0.000000 -0.000000  0.000000 -0.003583  0.006988  0.000000
  1O   1s        -0.032944 -0.000000  0.000000  0.000000 -0.000000  0.027928
  1O   2s        -0.077587 -0.000000  0.000000  0.000000 -0.000000  0.067660
  1O   3s         0.115607  0.000000 -0.000000 -0.000000  0.000000 -0.124156
  1O   4s         0.220244 -0.000000  0.000000 -0.000000  0.000000 -0.207486
  1O   5s         0.196372 -0.000000  0.000000 -0.000000 -0.000000 -0.632952
  1O   1pz       -0.000000 -0.276314 -0.104236  0.331531  0.169997 -0.000003
  1O   1px        0.315858 -0.000000  0.000000  0.000000 -0.000000  0.112212
  1O   1py       -0.000000 -0.104236  0.276314  0.169997 -0.331531 -0.000006
  1O   2pz       -0.000000 -0.206417 -0.077868  0.260326  0.133486 -0.000002
  1O   2px        0.194666 -0.000000  0.000000  0.000000 -0.000000  0.117097
  1O   2py       -0.000000 -0.077868  0.206417  0.133486 -0.260326 -0.000005
  1O   3pz       -0.000000 -0.100505 -0.037914  0.145163  0.074434 -0.000002
  1O   3px        0.054181  0.000000 -0.000000  0.000000 -0.000000  0.228488
  1O   3py       -0.000000 -0.037914  0.100505  0.074434 -0.145163 -0.000005
  1O   1dz2       0.004205 -0.000000 -0.000000  0.000000  0.000000  0.000560
  1O   1dxz       0.000000  0.007601  0.002867 -0.005208 -0.002671 -0.000000
  1O   1dyz       0.000000 -0.000000  0.000000  0.000000  0.000000  0.000000
  1O   1dx2y2    -0.007282  0.000000 -0.000000 -0.000000  0.000000 -0.000970
  1O   1dxy       0.000000  0.002867 -0.007601 -0.002671  0.005208 -0.000000
  1O   2dz2       0.001972 -0.000000 -0.000000  0.000000  0.000000  0.004077
  1O   2dxz       0.000000  0.013561  0.005116 -0.013580 -0.006963 -0.000000
  1O   2dyz      -0.000000 -0.000000  0.000000  0.000000  0.000000 -0.000000
  1O   2dx2y2    -0.003416  0.000000 -0.000000 -0.000000  0.000000 -0.007061
  1O   2dxy       0.000000  0.005116 -0.013561 -0.006963  0.013580 -0.000001
  1O   1f0        0.000000  0.002059  0.000777 -0.002273 -0.001165 -0.000000
  1O   1f+1      -0.001675  0.000000 -0.000000 -0.000000 -0.000000 -0.000199
  1O   1f-1       0.000000  0.000313 -0.000829 -0.000469  0.000914 -0.000000
  1O   1f+2      -0.000000 -0.002644 -0.000997  0.002917  0.001496  0.000000
  1O   1f-2      -0.000000  0.000000 -0.000000 -0.000000 -0.000000  0.000000
  1O   1f+3      -0.002163  0.000000 -0.000000 -0.000000  0.000000 -0.000256
  1O   1f-3       0.000000  0.001225 -0.003246 -0.001837  0.003583 -0.000000
  1O   6s         0.024276  0.000000  0.000000  0.000000 -0.000000 -1.984209
  1O   4pz       -0.000000 -0.006396 -0.002413  0.014974  0.007678 -0.000000
  1O   4px        0.001163 -0.000000 -0.000000  0.000000 -0.000000  0.363359
  1O   4py       -0.000000 -0.002413  0.006396  0.007678 -0.014974 -0.000000
  1O   3dz2      -0.003570  0.000000 -0.000000  0.000000 -0.000000  0.000250
  1O   3dxz      -0.000000  0.005276  0.001990 -0.001729 -0.000886 -0.000001
  1O   3dyz       0.000000 -0.000000  0.000000  0.000000  0.000000  0.000000
  1O   3dx2y2     0.006184 -0.000000  0.000000 -0.000000  0.000000 -0.000434
  1O   3dxy      -0.000000  0.001990 -0.005276 -0.000886  0.001729 -0.000001
  2O   1s         0.032942 -0.000000  0.000000 -0.000000  0.000000  0.027928
  2O   2s         0.077582 -0.000000  0.000000 -0.000000  0.000000  0.067660
  2O   3s        -0.115599  0.000000 -0.000000  0.000000 -0.000000 -0.124156
  2O   4s        -0.220236 -0.000000  0.000000  0.000000 -0.000000 -0.207484
  2O   5s        -0.196368 -0.000000  0.000000  0.000000 -0.000000 -0.632956
  2O   1pz        0.000000 -0.276325 -0.104240 -0.331523 -0.169993 -0.000003
  2O   1px        0.315846  0.000000 -0.000000  0.000000 -0.000000 -0.112210
  2O   1py        0.000000 -0.104240  0.276325 -0.169993  0.331523 -0.000006
  2O   2pz        0.000000 -0.206425 -0.077871 -0.260319 -0.133482 -0.000002
  2O   2px        0.194655  0.000000 -0.000000  0.000000 -0.000000 -0.117094
  2O   2py        0.000000 -0.077871  0.206425 -0.133482  0.260319 -0.000005
  2O   3pz        0.000000 -0.100509 -0.037916 -0.145159 -0.074432 -0.000002
  2O   3px        0.054175 -0.000000  0.000000  0.000000 -0.000000 -0.228485
  2O   3py        0.000000 -0.037916  0.100509 -0.074432  0.145159 -0.000005
  2O   1dz2      -0.004204 -0.000000 -0.000000 -0.000000 -0.000000  0.000560
  2O   1dxz       0.000000 -0.007601 -0.002868 -0.005208 -0.002671  0.000000
  2O   1dyz       0.000000 -0.000000  0.000000 -0.000000 -0.000000  0.000000
  2O   1dx2y2     0.007282  0.000000 -0.000000  0.000000 -0.000000 -0.000970
  2O   1dxy       0.000000 -0.002868  0.007601 -0.002671  0.005208  0.000000
  2O   2dz2      -0.001972 -0.000000 -0.000000 -0.000000 -0.000000  0.004076
  2O   2dxz       0.000000 -0.013562 -0.005116 -0.013580 -0.006963  0.000000
  2O   2dyz      -0.000000 -0.000000  0.000000 -0.000000 -0.000000 -0.000000
  2O   2dx2y2     0.003416  0.000000 -0.000000  0.000000 -0.000000 -0.007061
  2O   2dxy       0.000000 -0.005116  0.013562 -0.006963  0.013580  0.000001
  2O   1f0       -0.000000  0.002059  0.000777  0.002273  0.001165 -0.000000
  2O   1f+1      -0.001675 -0.000000  0.000000 -0.000000 -0.000000  0.000199
  2O   1f-1      -0.000000  0.000313 -0.000829  0.000469 -0.000914 -0.000000
  2O   1f+2       0.000000 -0.002644 -0.000997 -0.002917 -0.001496  0.000000
  2O   1f-2       0.000000 -0.000000  0.000000 -0.000000 -0.000000 -0.000000
  2O   1f+3      -0.002163 -0.000000  0.000000 -0.000000  0.000000  0.000256
  2O   1f-3      -0.000000  0.001225 -0.003247  0.001837 -0.003583 -0.000000
  2O   6s        -0.024279 -0.000000  0.000000  0.000000 -0.000000 -1.984225
  2O   4pz        0.000000 -0.006396 -0.002413 -0.014973 -0.007678 -0.000000
  2O   4px        0.001162 -0.000000  0.000000  0.000000 -0.000000 -0.363356
  2O   4py        0.000000 -0.002413  0.006396 -0.007678  0.014973 -0.000000
  2O   3dz2       0.003570  0.000000 -0.000000 -0.000000  0.000000  0.000250
  2O   3dxz      -0.000000 -0.005276 -0.001990 -0.001729 -0.000886  0.000001
  2O   3dyz       0.000000 -0.000000  0.000000 -0.000000 -0.000000  0.000000
  2O   3dx2y2    -0.006184 -0.000000  0.000000  0.000000 -0.000000 -0.000434
  2O   3dxy      -0.000000 -0.001990  0.005276 -0.000886  0.001729  0.000001
                     12        13        14        15        16        17   
                  -0.04217  -0.04217   0.03579   0.04552   0.04552   0.06218
                   0.00000   0.00000   0.00000   0.00000   0.00000   0.00000
                  --------  --------  --------  --------  --------  --------
  0C   1s         0.000001 -0.000000 -0.000000  0.000000 -0.000000  0.019297
  0C   2s         0.000001 -0.000000 -0.000000  0.000000 -0.000000  0.040784
  0C   3s        -0.000001  0.000000  0.000001 -0.000000 -0.000000 -0.189261
  0C   4s        -0.000010  0.000000 -0.000017 -0.000000  0.000000  1.314510
  0C   5s        -0.000049  0.000000 -0.000032 -0.000000  0.000000  5.870843
  0C   1pz        0.190786  0.421986 -0.000000 -0.091895 -0.082742  0.000000
  0C   1px       -0.000000  0.000000  0.028986 -0.000000  0.000000 -0.000002
  0C   1py        0.421986 -0.190786  0.000000 -0.082742  0.091895  0.000000
  0C   2pz        0.175239  0.387600  0.000000 -0.103897 -0.093548  0.000000
  0C   2px        0.000000 -0.000000  0.613938 -0.000000  0.000000 -0.000007
  0C   2py        0.387600 -0.175239 -0.000000 -0.093548  0.103897  0.000000
  0C   3pz        0.140108  0.309895 -0.000000 -0.661290 -0.595419 -0.000000
  0C   3px       -0.000000  0.000000  1.542833  0.000000 -0.000000 -0.000003
  0C   3py        0.309895 -0.140108 -0.000000 -0.595419  0.661290 -0.000000
  0C   1dz2      -0.000001  0.000000  0.000000 -0.000000 -0.000000 -0.025439
  0C   1dxz       0.000000  0.000000 -0.000000 -0.000000 -0.000000  0.000000
  0C   1dyz       0.000000  0.000000 -0.000000  0.000000  0.000000 -0.000000
  0C   1dx2y2     0.000001 -0.000000 -0.000000  0.000000  0.000000  0.044061
  0C   1dxy       0.000000 -0.000000 -0.000000 -0.000000  0.000000 -0.000000
  0C   2dz2       0.000000 -0.000000  0.000001  0.000000 -0.000000 -0.185915
  0C   2dxz       0.000000  0.000000 -0.000000  0.000000  0.000000 -0.000000
  0C   2dyz       0.000000  0.000000  0.000000  0.000000  0.000000  0.000000
  0C   2dx2y2    -0.000001  0.000000 -0.000001 -0.000000  0.000000  0.322014
  0C   2dxy       0.000000 -0.000000 -0.000000  0.000000 -0.000000  0.000000
  0C   1f0        0.000373  0.000825 -0.000000 -0.000274 -0.000246  0.000000
  0C   1f+1      -0.000000  0.000000 -0.014805  0.000000 -0.000000  0.000000
  0C   1f-1       0.000328 -0.000148  0.000000 -0.000097  0.000108  0.000000
  0C   1f+2      -0.000476 -0.001054  0.000000  0.000349  0.000314 -0.000000
  0C   1f-2       0.000000 -0.000000  0.000000 -0.000000  0.000000  0.000000
  0C   1f+3      -0.000000  0.000000 -0.019113  0.000000 -0.000000  0.000000
  0C   1f-3       0.001297 -0.000586  0.000000 -0.000387  0.000430  0.000000
  0C   6s        -0.000081  0.000001 -0.000027  0.000000 -0.000000  6.328813
  0C   3dz2       0.000005 -0.000000 -0.000000  0.000000  0.000000 -0.372846
  0C   3dxz       0.000000  0.000001 -0.000000  0.000001  0.000001  0.000000
  0C   3dyz       0.000000  0.000000  0.000000  0.000000  0.000000 -0.000000
  0C   3dx2y2    -0.000009  0.000000  0.000000 -0.000000  0.000000  0.645788
  0C   3dxy       0.000001 -0.000000 -0.000000  0.000001 -0.000001 -0.000000
  1O   1s        -0.000001  0.000000  0.013814 -0.000000  0.000000 -0.011199
  1O   2s        -0.000002  0.000000  0.033836 -0.000000  0.000000 -0.028091
  1O   3s         0.000003 -0.000000 -0.057909  0.000000  0.000000  0.072791
  1O   4s         0.000005 -0.000000 -0.116214  0.000000 -0.000000 -0.038478
  1O   5s         0.000015 -0.000000 -1.007225  0.000000 -0.000000 -1.206006
  1O   1pz       -0.111579 -0.246795 -0.000000 -0.034577 -0.031133 -0.000000
  1O   1px       -0.000003  0.000000 -0.052446 -0.000000  0.000000 -0.155683
  1O   1py       -0.246795  0.111579 -0.000000 -0.031133  0.034577 -0.000000
  1O   2pz       -0.094378 -0.208749 -0.000000 -0.044042 -0.039655 -0.000000
  1O   2px       -0.000003  0.000000  0.043518 -0.000000  0.000000 -0.020593
  1O   2py       -0.208749  0.094378 -0.000000 -0.039655  0.044042 -0.000000
  1O   3pz       -0.095767 -0.211821 -0.000000  0.116262  0.104681 -0.000000
  1O   3px       -0.000005  0.000000  0.549129  0.000000  0.000000  0.795491
  1O   3py       -0.211821  0.095767 -0.000000  0.104681 -0.116262 -0.000000
  1O   1dz2      -0.000000  0.000000 -0.000959 -0.000000 -0.000000 -0.002390
  1O   1dxz      -0.003315 -0.007332 -0.000000  0.001764  0.001588 -0.000000
  1O   1dyz       0.000000  0.000000  0.000000 -0.000000 -0.000000  0.000000
  1O   1dx2y2     0.000000 -0.000000  0.001661  0.000000 -0.000000  0.004139
  1O   1dxy      -0.007332  0.003315 -0.000000  0.001588 -0.001764 -0.000000
  1O   2dz2      -0.000000  0.000000  0.015044 -0.000000  0.000000  0.017706
  1O   2dxz      -0.009837 -0.021758  0.000000  0.014935  0.013447 -0.000000
  1O   2dyz       0.000000  0.000000 -0.000000 -0.000000 -0.000000 -0.000000
  1O   2dx2y2     0.000000 -0.000000 -0.026058  0.000000 -0.000000 -0.030667
  1O   2dxy      -0.021758  0.009837  0.000000  0.013447 -0.014935 -0.000000
  1O   1f0       -0.000671 -0.001483  0.000000  0.001202  0.001082 -0.000000
  1O   1f+1       0.000000 -0.000000 -0.001341  0.000000  0.000000 -0.000635
  1O   1f-1      -0.000616  0.000279  0.000000  0.000440 -0.000489 -0.000000
  1O   1f+2       0.000872  0.001928 -0.000000 -0.001549 -0.001395  0.000000
  1O   1f-2      -0.000000 -0.000000  0.000000  0.000000  0.000000  0.000000
  1O   1f+3       0.000000  0.000000 -0.001731  0.000000 -0.000000 -0.000819
  1O   1f-3      -0.002354  0.001064  0.000000  0.001709 -0.001898 -0.000000
  1O   6s         0.000048 -0.000000 -2.503289 -0.000000  0.000000 -5.419165
  1O   4pz       -0.001915 -0.004236 -0.000000  0.629015  0.566359 -0.000000
  1O   4px       -0.000009  0.000000  1.612737  0.000000 -0.000000  1.744212
  1O   4py       -0.004236  0.001915 -0.000000  0.566359 -0.629015 -0.000000
  1O   3dz2      -0.000000 -0.000000  0.090907  0.000000 -0.000000  0.098564
  1O   3dxz      -0.022344 -0.049420  0.000000 -0.108435 -0.097634  0.000000
  1O   3dyz       0.000000  0.000000 -0.000000 -0.000000 -0.000000  0.000000
  1O   3dx2y2     0.000000  0.000000 -0.157456 -0.000000 -0.000000 -0.170718
  1O   3dxy      -0.049420  0.022344  0.000000 -0.097634  0.108435  0.000000
  2O   1s        -0.000001  0.000000 -0.013814 -0.000000  0.000000 -0.011199
  2O   2s        -0.000002  0.000000 -0.033836 -0.000000  0.000000 -0.028091
  2O   3s         0.000003 -0.000000  0.057908  0.000000  0.000000  0.072792
  2O   4s         0.000005 -0.000000  0.116217  0.000000 -0.000000 -0.038484
  2O   5s         0.000015 -0.000000  1.007243  0.000000 -0.000000 -1.206024
  2O   1pz       -0.111580 -0.246797  0.000000 -0.034577 -0.031133 -0.000000
  2O   1px        0.000003 -0.000000 -0.052447  0.000000 -0.000000  0.155680
  2O   1py       -0.246797  0.111580  0.000000 -0.031133  0.034577 -0.000000
  2O   2pz       -0.094379 -0.208751  0.000000 -0.044042 -0.039655 -0.000000
  2O   2px        0.000003 -0.000000  0.043519  0.000000 -0.000000  0.020589
  2O   2py       -0.208751  0.094379  0.000000 -0.039655  0.044042 -0.000000
  2O   3pz       -0.095768 -0.211822  0.000000  0.116265  0.104684 -0.000000
  2O   3px        0.000005 -0.000000  0.549140 -0.000000 -0.000000 -0.795498
  2O   3py       -0.211822  0.095768  0.000000  0.104684 -0.116265 -0.000000
  2O   1dz2      -0.000000  0.000000  0.000959 -0.000000 -0.000000 -0.002390
  2O   1dxz       0.003315  0.007332 -0.000000 -0.001764 -0.001588  0.000000
  2O   1dyz       0.000000  0.000000  0.000000 -0.000000 -0.000000  0.000000
  2O   1dx2y2     0.000000 -0.000000 -0.001661  0.000000 -0.000000  0.004139
  2O   1dxy       0.007332 -0.003315 -0.000000 -0.001588  0.001764  0.000000
  2O   2dz2      -0.000000  0.000000 -0.015045 -0.000000  0.000000  0.017705
  2O   2dxz       0.009837  0.021758  0.000000 -0.014935 -0.013447  0.000000
  2O   2dyz       0.000000  0.000000  0.000000 -0.000000 -0.000000 -0.000000
  2O   2dx2y2     0.000000 -0.000000  0.026058  0.000000 -0.000000 -0.030667
  2O   2dxy       0.021758 -0.009837  0.000000 -0.013447  0.014935  0.000000
  2O   1f0       -0.000671 -0.001483 -0.000000  0.001202  0.001082 -0.000000
  2O   1f+1      -0.000000  0.000000 -0.001341 -0.000000 -0.000000  0.000634
  2O   1f-1      -0.000616  0.000279 -0.000000  0.000440 -0.000489 -0.000000
  2O   1f+2       0.000872  0.001928  0.000000 -0.001549 -0.001395  0.000000
  2O   1f-2       0.000000  0.000000 -0.000000 -0.000000 -0.000000 -0.000000
  2O   1f+3      -0.000000 -0.000000 -0.001731 -0.000000  0.000000  0.000819
  2O   1f-3      -0.002354  0.001064 -0.000000  0.001709 -0.001898 -0.000000
  2O   6s         0.000048 -0.000000  2.503340 -0.000000  0.000000 -5.419197
  2O   4pz       -0.001915 -0.004237  0.000000  0.629021  0.566364 -0.000000
  2O   4px        0.000009 -0.000000  1.612751 -0.000000  0.000000 -1.744203
  2O   4py       -0.004237  0.001915  0.000000  0.566364 -0.629021 -0.000000
  2O   3dz2      -0.000000 -0.000000 -0.090908  0.000000 -0.000000  0.098563
  2O   3dxz       0.022344  0.049421  0.000000  0.108436  0.097635 -0.000000
  2O   3dyz       0.000000  0.000000 -0.000000 -0.000000 -0.000000  0.000000
  2O   3dx2y2     0.000000  0.000000  0.157458 -0.000000  0.000000 -0.170717
  2O   3dxy       0.049421 -0.022344  0.000000  0.097635 -0.108436 -0.000000
                     18        19        20        21        22        23   
                   0.09104   0.09104   0.09967   0.16685   0.16685   0.17013
                   0.00000   0.00000   0.00000   0.00000   0.00000   0.00000
                  --------  --------  --------  --------  --------  --------
  0C   1s        -0.000000  0.000000 -0.039875 -0.000000  0.000000  0.000000
  0C   2s        -0.000000  0.000000 -0.083068 -0.000000  0.000000  0.000000
  0C   3s         0.000000  0.000000  0.071248 -0.000000 -0.000000 -0.000001
  0C   4s        -0.000000 -0.000000  1.282843  0.000000  0.000000 -0.000017
  0C   5s        -0.000000 -0.000000 -3.336386  0.000000  0.000000 -0.000060
  0C   1pz       -0.000000 -0.000000 -0.000000  0.000000 -0.000000 -0.000000
  0C   1px       -0.000000  0.000000  0.000003  0.000000  0.000000  0.007633
  0C   1py       -0.000000  0.000000 -0.000000  0.000000  0.000000  0.000000
  0C   2pz        0.000001  0.000000 -0.000000  0.000000 -0.000000  0.000000
  0C   2px       -0.000000  0.000000  0.000004 -0.000000  0.000000  0.866582
  0C   2py        0.000000 -0.000001 -0.000000  0.000000  0.000000 -0.000000
  0C   3pz        0.000001  0.000001  0.000000  0.000000 -0.000000 -0.000000
  0C   3px        0.000000 -0.000000  0.000025 -0.000000  0.000000  6.047385
  0C   3py        0.000001 -0.000001  0.000000  0.000000  0.000000 -0.000000
  0C   1dz2       0.000000  0.000000  0.015322  0.000000  0.024915  0.000000
  0C   1dxz      -0.000187 -0.000104 -0.000000  0.000000 -0.000000 -0.000000
  0C   1dyz      -0.000000  0.000000  0.000000 -0.028773  0.000000 -0.000000
  0C   1dx2y2    -0.000000 -0.000000 -0.026538  0.000000  0.014385 -0.000000
  0C   1dxy      -0.000104  0.000187  0.000000 -0.000000  0.000000 -0.000000
  0C   2dz2       0.000000  0.000000  0.079026  0.000000  0.006927  0.000000
  0C   2dxz      -0.087976 -0.048881  0.000000 -0.000000  0.000000 -0.000000
  0C   2dyz       0.000000 -0.000000 -0.000000 -0.007970  0.000000  0.000000
  0C   2dx2y2    -0.000000 -0.000000 -0.136878  0.000000  0.003999 -0.000001
  0C   2dxy      -0.048881  0.087976 -0.000000  0.000000 -0.000000 -0.000000
  0C   1f0       -0.000000 -0.000000 -0.000000  0.000000 -0.000000 -0.000000
  0C   1f+1       0.000000  0.000000 -0.000000  0.000000  0.000000 -0.018941
  0C   1f-1      -0.000000  0.000000 -0.000000  0.000000  0.000000  0.000000
  0C   1f+2       0.000000  0.000000  0.000000 -0.000000  0.000000  0.000000
  0C   1f-2       0.000000  0.000000  0.000000 -0.000000  0.000000  0.000000
  0C   1f+3       0.000000 -0.000000 -0.000000  0.000000 -0.000000 -0.024453
  0C   1f-3      -0.000000  0.000000 -0.000000  0.000000  0.000000  0.000000
  0C   6s        -0.000000 -0.000000 -9.064176  0.000000  0.000000 -0.000001
  0C   3dz2       0.000000  0.000000  1.123219  0.000000  0.910881 -0.000002
  0C   3dxz      -0.773839 -0.429957  0.000000 -0.000000  0.000000 -0.000000
  0C   3dyz       0.000000 -0.000000  0.000000 -1.051837  0.000001 -0.000000
  0C   3dx2y2    -0.000000 -0.000000 -1.945472  0.000000  0.525897  0.000004
  0C   3dxy      -0.429957  0.773839 -0.000000  0.000000 -0.000000 -0.000000
  1O   1s        -0.000000  0.000000  0.020487  0.000000 -0.000000 -0.017439
  1O   2s        -0.000000  0.000000  0.048995  0.000000 -0.000000 -0.041998
  1O   3s        -0.000000  0.000000 -0.079430 -0.000000  0.000000  0.080140
  1O   4s         0.000000  0.000000 -0.212234 -0.000000 -0.000000  0.181017
  1O   5s        -0.000000  0.000000  0.970114 -0.000000 -0.000000 -1.870032
  1O   1pz       -0.058363 -0.032427  0.000000 -0.000000  0.000000  0.000000
  1O   1px       -0.000000  0.000000  0.105997  0.000000  0.000000  0.044269
  1O   1py       -0.032427  0.058363  0.000000 -0.000000 -0.000000  0.000000
  1O   2pz       -0.069392 -0.038555  0.000000 -0.000000  0.000000 -0.000000
  1O   2px       -0.000000 -0.000000  0.051614 -0.000000  0.000000  0.104411
  1O   2py       -0.038555  0.069392  0.000000 -0.000000 -0.000000 -0.000000
  1O   3pz        0.305048  0.169489  0.000000 -0.000000  0.000000 -0.000000
  1O   3px       -0.000000  0.000000  0.175821 -0.000000  0.000000  1.312293
  1O   3py        0.169489 -0.305048  0.000000 -0.000000 -0.000000 -0.000000
  1O   1dz2       0.000000 -0.000000 -0.000785  0.000000  0.002337 -0.002952
  1O   1dxz       0.002643  0.001468  0.000000 -0.000000  0.000000 -0.000000
  1O   1dyz      -0.000000  0.000000 -0.000000 -0.002699  0.000000  0.000000
  1O   1dx2y2    -0.000000  0.000000  0.001359  0.000000  0.001349  0.005113
  1O   1dxy       0.001468 -0.002643  0.000000 -0.000000 -0.000000  0.000000
  1O   2dz2      -0.000000 -0.000000 -0.008856  0.000000  0.029218  0.024948
  1O   2dxz      -0.001135 -0.000631 -0.000000 -0.000000  0.000000  0.000000
  1O   2dyz      -0.000000 -0.000000  0.000000 -0.033735  0.000000 -0.000000
  1O   2dx2y2     0.000000 -0.000000  0.015339  0.000000  0.016869 -0.043211
  1O   2dxy      -0.000631  0.001135 -0.000000 -0.000000 -0.000000  0.000000
  1O   1f0       -0.000090 -0.000050  0.000000 -0.000000  0.000000  0.000000
  1O   1f+1       0.000000 -0.000000 -0.000064 -0.000000 -0.001989 -0.001934
  1O   1f-1      -0.000022  0.000039 -0.000000 -0.000000  0.000000  0.000000
  1O   1f+2       0.000119  0.000066  0.000000  0.000000 -0.000000 -0.000000
  1O   1f-2       0.000000  0.000000 -0.000000  0.002514 -0.000000  0.000000
  1O   1f+3       0.000000 -0.000000 -0.000082  0.000000  0.001540 -0.002497
  1O   1f-3      -0.000080  0.000144 -0.000000 -0.000000 -0.000000  0.000000
  1O   6s         0.000000 -0.000000  6.258159  0.000000 -0.000000 -9.584175
  1O   4pz        1.546665  0.859350  0.000000 -0.000000  0.000000  0.000000
  1O   4px       -0.000000  0.000000  0.334663 -0.000000  0.000000  3.021266
  1O   4py        0.859350 -1.546665  0.000000 -0.000000 -0.000000  0.000000
  1O   3dz2      -0.000000  0.000000  0.092842 -0.000000 -0.044991  0.012055
  1O   3dxz      -0.130069 -0.072268  0.000000  0.000000 -0.000000  0.000000
  1O   3dyz       0.000000  0.000000  0.000000  0.051971 -0.000000  0.000000
  1O   3dx2y2    -0.000000  0.000000 -0.160807 -0.000000 -0.025976 -0.020880
  1O   3dxy      -0.072268  0.130069  0.000000  0.000000  0.000000  0.000000
  2O   1s         0.000000 -0.000000  0.020486 -0.000000  0.000000  0.017438
  2O   2s         0.000000 -0.000000  0.048994 -0.000000 -0.000000  0.041998
  2O   3s         0.000000 -0.000000 -0.079430  0.000000  0.000000 -0.080139
  2O   4s        -0.000000  0.000000 -0.212233 -0.000000 -0.000000 -0.181013
  2O   5s         0.000000 -0.000000  0.970130 -0.000000 -0.000000  1.870066
  2O   1pz        0.058363  0.032427  0.000000 -0.000000  0.000000 -0.000000
  2O   1px       -0.000000  0.000000 -0.105995 -0.000000  0.000000  0.044269
  2O   1py        0.032427 -0.058363  0.000000 -0.000000 -0.000000 -0.000000
  2O   2pz        0.069391  0.038555  0.000000 -0.000000  0.000000  0.000000
  2O   2px        0.000000  0.000000 -0.051611 -0.000000 -0.000000  0.104415
  2O   2py        0.038555 -0.069391  0.000000 -0.000000 -0.000000  0.000000
  2O   3pz       -0.305051 -0.169491  0.000000 -0.000000  0.000000  0.000000
  2O   3px       -0.000000  0.000000 -0.175825 -0.000000 -0.000000  1.312297
  2O   3py       -0.169491  0.305051  0.000000 -0.000000 -0.000000  0.000000
  2O   1dz2      -0.000000  0.000000 -0.000785  0.000000  0.002337  0.002952
  2O   1dxz       0.002643  0.001468 -0.000000  0.000000 -0.000000  0.000000
  2O   1dyz       0.000000 -0.000000 -0.000000 -0.002699  0.000000 -0.000000
  2O   1dx2y2     0.000000 -0.000000  0.001359  0.000000  0.001349 -0.005113
  2O   1dxy       0.001468 -0.002643 -0.000000  0.000000  0.000000  0.000000
  2O   2dz2      -0.000000 -0.000000 -0.008856  0.000000  0.029218 -0.024948
  2O   2dxz      -0.001136 -0.000631  0.000000  0.000000 -0.000000 -0.000000
  2O   2dyz       0.000000  0.000000  0.000000 -0.033735  0.000000 -0.000000
  2O   2dx2y2     0.000000  0.000000  0.015338  0.000000  0.016869  0.043211
  2O   2dxy      -0.000631  0.001136  0.000000  0.000000  0.000000  0.000000
  2O   1f0        0.000090  0.000050 -0.000000 -0.000000  0.000000 -0.000000
  2O   1f+1       0.000000 -0.000000  0.000064  0.000000  0.001989 -0.001934
  2O   1f-1       0.000022 -0.000039  0.000000 -0.000000  0.000000 -0.000000
  2O   1f+2      -0.000119 -0.000066  0.000000  0.000000 -0.000000  0.000000
  2O   1f-2       0.000000  0.000000  0.000000 -0.002514  0.000000 -0.000000
  2O   1f+3       0.000000 -0.000000  0.000082 -0.000000 -0.001540 -0.002497
  2O   1f-3       0.000080 -0.000144  0.000000 -0.000000 -0.000000 -0.000000
  2O   6s        -0.000000  0.000000  6.258213 -0.000000 -0.000000  9.584215
  2O   4pz       -1.546662 -0.859349  0.000000 -0.000000  0.000000 -0.000000
  2O   4px       -0.000000  0.000000 -0.334667 -0.000000 -0.000000  3.021272
  2O   4py       -0.859349  1.546662  0.000000 -0.000000 -0.000000 -0.000000
  2O   3dz2       0.000000 -0.000000  0.092843 -0.000000 -0.044992 -0.012054
  2O   3dxz      -0.130068 -0.072267 -0.000000 -0.000000  0.000000  0.000000
  2O   3dyz      -0.000000 -0.000000 -0.000000  0.051972 -0.000000  0.000000
  2O   3dx2y2     0.000000 -0.000000 -0.160809 -0.000000 -0.025976  0.020878
  2O   3dxy      -0.072267  0.130068 -0.000000 -0.000000 -0.000000  0.000000
                     24        25        26        27        28        29   
                   0.21900   0.28026   0.28026   0.30227   0.31470   0.31470
                   0.00000   0.00000   0.00000   0.00000   0.00000   0.00000
                  --------  --------  --------  --------  --------  --------
  0C   1s         0.047294  0.000000  0.000000 -0.057851  0.000000  0.000000
  0C   2s         0.105675  0.000000  0.000000 -0.135850  0.000000  0.000000
  0C   3s         0.064366 -0.000000 -0.000000  0.695088 -0.000000 -0.000000
  0C   4s        -2.858762  0.000000  0.000000 -4.123756 -0.000000 -0.000000
  0C   5s       -15.627870  0.000000  0.000000 -2.287634 -0.000000 -0.000000
  0C   1pz        0.000000  0.183475  0.164897  0.000000  0.000002  0.000001
  0C   1px       -0.000004 -0.000000 -0.000000  0.000005  0.000000 -0.000000
  0C   1py        0.000000 -0.164897  0.183475  0.000000  0.000001 -0.000002
  0C   2pz        0.000000  0.198714  0.178592  0.000000  0.000007  0.000004
  0C   2px        0.000019  0.000000  0.000000  0.000010 -0.000000  0.000000
  0C   2py        0.000000 -0.178592  0.198714  0.000000  0.000004 -0.000007
  0C   3pz        0.000000 -3.027689 -2.721112 -0.000000 -0.000014 -0.000009
  0C   3px        0.000035  0.000000  0.000000 -0.000040 -0.000001  0.000000
  0C   3py        0.000000  2.721112 -3.027689 -0.000000 -0.000009  0.000014
  0C   1dz2      -0.016498 -0.000000 -0.000000  0.021630 -0.000000  0.000000
  0C   1dxz      -0.000000 -0.000001 -0.000001  0.000000  0.021145  0.013246
  0C   1dyz       0.000000 -0.000000 -0.000000 -0.000000 -0.000000  0.000000
  0C   1dx2y2     0.028575 -0.000000  0.000000 -0.037465 -0.000000 -0.000000
  0C   1dxy       0.000000  0.000001 -0.000001 -0.000000  0.013246 -0.021145
  0C   2dz2       0.301880 -0.000000  0.000000  0.185582  0.000000  0.000000
  0C   2dxz       0.000000  0.000002  0.000002 -0.000000 -0.207784 -0.130164
  0C   2dyz      -0.000000  0.000000  0.000000  0.000000  0.000000 -0.000000
  0C   2dx2y2    -0.522871  0.000000 -0.000000 -0.321437 -0.000000 -0.000000
  0C   2dxy      -0.000000 -0.000002  0.000002  0.000000 -0.130164  0.207784
  0C   1f0       -0.000000 -0.022465 -0.020190 -0.000000 -0.000000 -0.000000
  0C   1f+1      -0.000000 -0.000000 -0.000000  0.000000  0.000000 -0.000000
  0C   1f-1      -0.000000  0.008251 -0.009180 -0.000000 -0.000000  0.000000
  0C   1f+2       0.000000  0.029013  0.026076  0.000000  0.000001  0.000000
  0C   1f-2      -0.000000  0.000000 -0.000000 -0.000000  0.000000  0.000000
  0C   1f+3      -0.000000 -0.000000 -0.000000  0.000000  0.000000 -0.000000
  0C   1f-3      -0.000000  0.031929 -0.035527 -0.000000 -0.000000  0.000001
  0C   6s       -12.552288 -0.000000 -0.000000  4.558648 -0.000000 -0.000000
  0C   3dz2       1.126922  0.000000  0.000000 -1.704943  0.000000  0.000000
  0C   3dxz      -0.000000  0.000013  0.000011 -0.000000 -2.737854 -1.715099
  0C   3dyz       0.000000  0.000000  0.000000  0.000000 -0.000000  0.000000
  0C   3dx2y2    -1.951886  0.000000 -0.000000  2.953049 -0.000000 -0.000000
  0C   3dxy      -0.000000 -0.000011  0.000013  0.000000 -1.715099  2.737854
  1O   1s        -0.003158  0.000000 -0.000000  0.015537  0.000000 -0.000000
  1O   2s        -0.007242  0.000000 -0.000000  0.040831  0.000000 -0.000000
  1O   3s        -0.005539  0.000000  0.000000 -0.133903 -0.000000  0.000000
  1O   4s         0.191010 -0.000000  0.000000  0.227667 -0.000000  0.000000
  1O   5s         3.048654 -0.000000 -0.000000 -0.461812  0.000000 -0.000000
  1O   1pz       -0.000000  0.055221  0.049630  0.000000  0.126148  0.079024
  1O   1px       -0.213193 -0.000000 -0.000000  0.045805 -0.000000  0.000000
  1O   1py       -0.000000 -0.049630  0.055221 -0.000000  0.079024 -0.126148
  1O   2pz        0.000000 -0.041082 -0.036922 -0.000000  0.051903  0.032514
  1O   2px       -0.380765  0.000000 -0.000000 -0.063950 -0.000000  0.000000
  1O   2py        0.000000  0.036922 -0.041082 -0.000000  0.032514 -0.051903
  1O   3pz        0.000000  0.568884  0.511280  0.000000  1.083446  0.678713
  1O   3px       -1.867082  0.000000  0.000000 -1.635340 -0.000000  0.000000
  1O   3py        0.000000 -0.511280  0.568884  0.000000  0.678713 -1.083446
  1O   1dz2       0.003401  0.000000  0.000000 -0.002790 -0.000000 -0.000000
  1O   1dxz       0.000000 -0.007077 -0.006361 -0.000000 -0.001255 -0.000786
  1O   1dyz      -0.000000  0.000000  0.000000 -0.000000 -0.000000 -0.000000
  1O   1dx2y2    -0.005890  0.000000 -0.000000  0.004832  0.000000 -0.000000
  1O   1dxy       0.000000  0.006361 -0.007077 -0.000000 -0.000786  0.001255
  1O   2dz2      -0.024351  0.000000  0.000000 -0.046209 -0.000000  0.000000
  1O   2dxz      -0.000000  0.019584  0.017601  0.000000 -0.036428 -0.022820
  1O   2dyz       0.000000 -0.000000 -0.000000  0.000000 -0.000000 -0.000000
  1O   2dx2y2     0.042177 -0.000000 -0.000000  0.080036  0.000000 -0.000000
[...]
Fock matrix formation       ....       3.221 sec  ( 96.7%)
  Startup                   ....       0.000 sec  (  0.0% of F)
  Split-RI-J                ....       0.097 sec  (  3.0% of F)
  Chain of spheres X        ....       2.738 sec  ( 85.0% of F)
  XC integration            ....       0.384 sec  ( 11.9% of F)
    XC Preparation          ....       0.000 sec  (  0.0% of XC)
    Basis function eval.    ....       0.123 sec  ( 32.0% of XC)
    Density eval.           ....       0.067 sec  ( 17.4% of XC)
    XC-Functional eval.     ....       0.021 sec  (  5.4% of XC)
    XC-Potential eval.      ....       0.166 sec  ( 43.3% of XC)
Diagonalization             ....       0.000 sec  (  0.0%)
Density matrix formation    ....       0.001 sec  (  0.0%)
Total Energy calculation    ....       0.000 sec  (  0.0%)
Population analysis         ....       0.025 sec  (  0.8%)
Orbital Transformation      ....       0.002 sec  (  0.0%)
Orbital Orthonormalization  ....       0.000 sec  (  0.0%)
DIIS solution               ....       0.002 sec  (  0.1%)
  MO trafo                  ....       0.000 sec  (  0.0 % of DIIS)
  Orb grad                  ....       0.000 sec  (  0.0 % of DIIS)
  Energy W gradient         ....       0.000 sec  (  0.0 % of DIIS)
  DIIS error                ....       0.000 sec  ( 12.7 % of DIIS)
  DIIS work                 ....       0.002 sec  ( 85.6 % of DIIS)
  Form Q                    ....       0.000 sec  (  0.0 % of DIIS)
  Form QpQm                 ....       0.000 sec  (  0.0 % of DIIS)
  Exp/Cayley                ....       0.000 sec  (  0.0 % of DIIS)
  Orb update                ....       0.000 sec  (  0.0 % of DIIS)
  Wake-sleep                ....       0.000 sec  (  1.6 % of DIIS)
SOSCF solution              ....       0.004 sec  (  0.1%)
  MO trafo                  ....       0.002 sec  ( 58.4 % of SOSCF)
  Orb grad                  ....       0.000 sec  (  0.9 % of SOSCF)
  Rot update                ....       0.000 sec  (  2.0 % of SOSCF)
  Step                      ....       0.001 sec  ( 37.6 % of SOSCF)
Finished LeanSCF after   3.3 sec

Maximum memory used throughout the entire LEANSCF-calculation: 10.9 MB

-------------------------   --------------------
FINAL SINGLE POINT ENERGY      -188.588207567424
-------------------------   --------------------

                                *** OPTIMIZATION RUN DONE ***


------------------------------------------------------------------------------
                              ORCA PROPERTY CALCULATIONS
------------------------------------------------------------------------------

GBWName                                 ... co2_freq.gbw
Number of atoms                         ...      3
Number of basis functions               ...    117
Max core memory                         ...   2000 MB

Electric properties:
Dipole moment                           ... YES
Quadrupole moment                       ...  NO
Static polarizability (Dipole/Dipole)   ...  NO
Static polarizability (Dipole/Quad.)    ...  NO
Static polarizability (Quad./Quad.)     ...  NO
Static polarizability (Velocity)        ...  NO

Atomic electric properties:
Dipole moment                           ...  NO
Quadrupole moment                       ...  NO
Static polarizability                   ...  NO

Choice of electric origin               ... Center of mass
Position of electric origin             ...     0.000000     0.000000    -0.000000

General magnetic properties:
Magnetizability                         ...  NO

EPR properties:
g-Tensor (aka g-matrix)                 ...  NO
Zero-Field splitting spin-orbit         ...  NO
Zero-field splitting spin-spin          ...  NO
Hyperfine couplings                     ...  NO (   0 nuclei)
Quadrupole couplings                    ...  NO (   0 nuclei)
Contact density                         ...  NO (   0 nuclei)

NMR properties:
Chemical shifts                         ...  NO (   0 nuclei)
Spin-rotation constants                 ...  NO (   0 nuclei)
Spin-spin couplings                     ...  NO (   0 nuclei,    0 pairs)

Choice of magnetic origin               ... GIAO
Position of magnetic origin             ...     0.000000     0.000000     0.000000

Properties with geometric perturbations:
SCF Hessian                             ...  NO
IR spectrum                             ...  NO
VCD spectrum                            ...  NO
X-ray spectroscopy properties:
SCF XES/XAS/RIXS spectra                ...  NO


-------------
DIPOLE MOMENT
-------------

Method             : SCF
Type of density    : Electron Density
Multiplicity       :   1
Irrep              :   0
Energy             :  -188.5882075674237797 Eh
Relativity type    : 
Basis              : AO
                                X                 Y                 Z
Electronic contribution:     -0.000006089       0.000000052       0.000000071
Nuclear contribution   :      0.000000013       0.000000000      -0.000000001
                        -----------------------------------------
Total Dipole Moment    :     -0.000006076       0.000000053       0.000000070
                        -----------------------------------------
Magnitude (a.u.)       :      0.000006077
Magnitude (Debye)      :      0.000015446



--------------------
Rotational spectrum 
--------------------
 
Rotational constants in cm-1:             0.000000             0.391500             0.391500 
Rotational constants in MHz :             0.000000         11736.865185         11736.865185 

Dipole components along the rotational axes: 
x,y,z [a.u.] :    -0.000006     0.000000    -0.000000 
x,y,z [Debye]:    -0.000015     0.000000    -0.000000 

 

Dipole moment calculation done in   0.0 sec 

Maximum memory used throughout the entire PROP-calculation: 7.0 MB

----------------------------------------------------------------------------
                           ORCA NUMERICAL FREQUENCIES
----------------------------------------------------------------------------

Number of atoms                ... 3
Central differences            ... used
Number of displacements        ... 18
Numerical increment            ... 1.000e-03 bohr
IR-spectrum generation         ... on
Raman-spectrum generation      ... off
Surface Crossing Hessian       ... off

The output will be reduced. Please look at the following files:
SCF program output             ... >co2_freq.lastscf
Integral program output        ... >co2_freq.lastint
Gradient program output        ... >co2_freq.lastgrad
Dipole moment program output   ... >co2_freq.lastmom

	<< Calculating gradient on displaced geometry   1 (of  18) >>
	<< Calculating gradient on displaced geometry   2 (of  18) >>
	<< Calculating gradient on displaced geometry   3 (of  18) >>
	<< Calculating gradient on displaced geometry   4 (of  18) >>
	<< Calculating gradient on displaced geometry   5 (of  18) >>
	<< Calculating gradient on displaced geometry   6 (of  18) >>
	<< Calculating gradient on displaced geometry   7 (of  18) >>
	<< Calculating gradient on displaced geometry   8 (of  18) >>
	<< Calculating gradient on displaced geometry   9 (of  18) >>
	<< Calculating gradient on displaced geometry  10 (of  18) >>
	<< Calculating gradient on displaced geometry  11 (of  18) >>
	<< Calculating gradient on displaced geometry  12 (of  18) >>
	<< Calculating gradient on displaced geometry  13 (of  18) >>
	<< Calculating gradient on displaced geometry  14 (of  18) >>
	<< Calculating gradient on displaced geometry  15 (of  18) >>
	<< Calculating gradient on displaced geometry  16 (of  18) >>
	<< Calculating gradient on displaced geometry  17 (of  18) >>
	<< Calculating gradient on displaced geometry  18 (of  18) >>

-----------------------
VIBRATIONAL FREQUENCIES
-----------------------

Scaling factor for frequencies =  1.000000000  (already applied!)

     0:       0.00 cm**-1
     1:       0.00 cm**-1
     2:       0.00 cm**-1
     3:       0.00 cm**-1
     4:       0.00 cm**-1
     5:     670.97 cm**-1
     6:     671.10 cm**-1
     7:    1352.30 cm**-1
     8:    2404.98 cm**-1


------------
NORMAL MODES
------------

These modes are the Cartesian displacements weighted by the diagonal matrix
M(i,i)=1/sqrt(m[i]) where m[i] is the mass of the displaced atom
Thus, these vectors are normalized but *not* orthogonal

                  0          1          2          3          4          5    
      0       0.000000   0.000000   0.000000   0.000000   0.000000  -0.000014
      1       0.000000   0.000000   0.000000   0.000000   0.000000  -0.878573
      2       0.000000   0.000000   0.000000   0.000000   0.000000   0.090890
      3       0.000000   0.000000   0.000000   0.000000   0.000000   0.000054
      4       0.000000   0.000000   0.000000   0.000000   0.000000   0.329787
      5       0.000000   0.000000   0.000000   0.000000   0.000000  -0.034117
      6       0.000000   0.000000   0.000000   0.000000   0.000000  -0.000044
      7       0.000000   0.000000   0.000000   0.000000   0.000000   0.329788
      8       0.000000   0.000000   0.000000   0.000000   0.000000  -0.034117
                  6          7          8    
      0      -0.000033  -0.000024  -0.883262
      1       0.090890  -0.000097   0.000010
      2       0.878573  -0.000197  -0.000034
      3      -0.000120  -0.707098   0.331563
      4      -0.034117   0.000036  -0.000004
      5      -0.329787   0.000074   0.000013
      6       0.000145   0.707116   0.331533
      7      -0.034117   0.000036  -0.000004
      8      -0.329788   0.000074   0.000013


-----------
IR SPECTRUM
-----------

 Mode   freq       eps      Int      T**2         TX        TY        TZ
       cm**-1   L/(mol*cm) km/mol    a.u.
----------------------------------------------------------------------------
  5:    670.97   0.006310   31.89  0.002935  (-0.000003 -0.053886  0.005575)
  6:    671.10   0.006310   31.89  0.002934  (-0.000007  0.005576  0.053882)
  7:   1352.30   0.000000    0.00  0.000000  (-0.000005 -0.000003 -0.000008)
  8:   2404.98   0.133746  675.90  0.017354  (-0.131736  0.000000 -0.000001)

* The epsilon (eps) is given for a Dirac delta lineshape.
** The dipole moment derivative (T) already includes vibrational overlap.

The first frequency considered to be a vibration is 5
The total number of vibrations considered is 4


--------------------------
THERMOCHEMISTRY AT 298.15K
--------------------------

Temperature         ...   298.15 K
Pressure            ...     1.00 atm
Total Mass          ...    44.01 AMU
Quasi RRHO          ...     True
Cut-Off Frequency   ...     1.00 cm^-1
The molecule is recognized as being linear

Throughout the following assumptions are being made:
  (1) The electronic state is orbitally nondegenerate
  (2) There are no thermally accessible electronically excited states
  (3) Hindered rotations indicated by low frequency modes are not
      treated as such but are treated as vibrations and this may
      cause some error
  (4) All equations used are the standard statistical mechanics
      equations for an ideal gas
  (5) All vibrations are strictly harmonic

freq.     670.97  E(vib)   ...       0.08 
freq.     671.10  E(vib)   ...       0.08 
freq.    1352.30  E(vib)   ...       0.01 
freq.    2404.98  E(vib)   ...       0.00 

------------
INNER ENERGY
------------

The inner energy is: U= E(el) + E(ZPE) + E(vib) + E(rot) + E(trans)
    E(el)   - is the total energy from the electronic structure calculation
              = E(kin-el) + E(nuc-el) + E(el-el) + E(nuc-nuc)
    E(ZPE)  - the the zero temperature vibrational energy from the frequency calculation
    E(vib)  - the the finite temperature correction to E(ZPE) due to population
              of excited vibrational states
    E(rot)  - is the rotational thermal energy
    E(trans)- is the translational thermal energy

Summary of contributions to the inner energy U:
Electronic energy                ...   -188.58820757 Eh
Zero point energy                ...      0.01161719 Eh       7.29 kcal/mol
Thermal vibrational correction   ...      0.00025888 Eh       0.16 kcal/mol
Thermal rotational correction    ...      0.00094418 Eh       0.59 kcal/mol
Thermal translational correction ...      0.00141627 Eh       0.89 kcal/mol
-----------------------------------------------------------------------
Total thermal energy                   -188.57397105 Eh


Summary of corrections to the electronic energy:
(perhaps to be used in another calculation)
Total thermal correction                  0.00261933 Eh       1.64 kcal/mol
Non-thermal (ZPE) correction              0.01161719 Eh       7.29 kcal/mol
-----------------------------------------------------------------------
Total correction                          0.01423651 Eh       8.93 kcal/mol


--------
ENTHALPY
--------

The enthalpy is H = U + kB*T
                kB is Boltzmann's constant
Total thermal energy              ...   -188.57397105 Eh 
Thermal Enthalpy correction       ...      0.00094421 Eh       0.59 kcal/mol
-----------------------------------------------------------------------
Total Enthalpy                    ...   -188.57302684 Eh


Note: Rotational entropy computed according to Herzberg 
Infrared and Raman Spectra, Chapter V,1, Van Nostrand Reinhold, 1945 
Point Group:  D(inf)h, Symmetry Number:   1  
Rotational constants in cm-1:     0.000000     0.391500     0.391500 

Vibrational entropy computed according to the QRRHO of S. Grimme
Chem.Eur.J. 2012 18 9955 using a reference frequency of 100.0 cm-1


-------
ENTROPY
-------

The entropy contributions are T*S = T*(S(el)+S(vib)+S(rot)+S(trans))
     S(el)   - electronic entropy
     S(vib)  - vibrational entropy
     S(rot)  - rotational entropy
     S(trans)- translational entropy
The entropies will be listed as multiplied by the temperature to get
units of energy

Electronic entropy                ...      0.00000000 Eh      0.00 kcal/mol
Vibrational entropy               ...      0.00033614 Eh      0.21 kcal/mol
Rotational entropy                ...      0.00686569 Eh      4.31 kcal/mol
Translational entropy             ...      0.01770880 Eh     11.11 kcal/mol
-----------------------------------------------------------------------
Final entropy term                ...      0.02491063 Eh     15.63 kcal/mol


-------------------
GIBBS FREE ENERGY
-------------------

The Gibbs free energy is G = H - T*S

Total enthalpy                    ...   -188.57302684 Eh 
Total entropy correction          ...     -0.02491063 Eh    -15.63 kcal/mol
-----------------------------------------------------------------------
Final Gibbs free energy         ...   -188.59793748 Eh

For completeness - the Gibbs free energy minus the electronic energy
G-E(el)                           ...     -0.00972991 Eh     -6.11 kcal/mol



--------------------------------
SUGGESTED CITATIONS FOR THIS RUN
--------------------------------

Below you find a list of papers that are relevant to this ORCA run
We neither can nor want to force you to cite these papers, but we appreciate if you do
You receive ORCA, which is the product of decades of hard work by many enthusiastic individuals, for free
The only thing we kindly ask in return is that you cite our papers,
We deeply appreciate it, if you show your appreciation for ORCA by not just citing the generic ORCA reference.

Please note that relegating all ORCA citations to the supporting information does *not* help us.
SI sections are not indexed - citations you put there will not count into any citation statistics
But we need these citations in order to attract the funding resources that allow us to do what we are doing

Therefore, if you are a happy ORCA user, please consider citing a few of the papers listed below in the main body of your paper

In addition to the list printed below, the program has created the file co2_freq.bibtex that contains the list in bibtex format
You can import this file easily into all common literature databanks and citation aid programs


List of essential papers. We consider these as the minimum necessary citations

  1. Neese,F.
     Software update: the ORCA program system, version 5.0
     WIRES Comput. Molec. Sci., 2022 12(1)e1606
     doi.org/10.1002/wcms.1606

List of papers to cite with high priority. The work reported in these papers was absolutely
necessary for this run to complete.
Our perspective: the developers of density functionals and basis sets usually get cited in chemistry papers
Good! But without the algorithms to do something with them, the functionals or basis sets would not do anything.
Hence, in our opinion, the algorithm design and method developments papers are equally worthy of getting cited

  1. Neese,F.
     An improvement of the resolution of the identity approximation for the formation of the Coulomb matrix
     J. Comp. Chem., 2003 24(14)1740-1747
     doi.org/10.1002/jcc.10318
  2. Neese,F.; Wennmohs,F.; Hansen,A.; Becker,U.
     Efficient, approximate and parallel Hartree-Fock and hybrid DFT calculations. A 'chain-of-spheres' algorithm for the Hartree-Fock exchange
     Chem. Phys., 2009 356(1-3)98-109
     doi.org/10.1016/j.chemphys.2008.10.036
  3. Bykov,D.; Petrenko,T.; Izsak,R.; Kossmann,S.; Becker,U.; Valeev,E.; Neese,F.
     Efficient implementation of the analytic second derivatives of Hartree-Fock and hybrid DFT energies: a detailed analysis of different approximations
     Molec. Phys., 2015 113 1961-1977
     doi.org/10.1080/00268976.2015.1025114
  4. Helmich-Paris,B.; de Souza,B.; Neese,F.; Izsák,R.
     An improved chain of spheres for exchange algorithm
     J. Chem. Phys., 2021 155 104109
     doi.org/doi: 10.1063/5.0058766.
  5. Neese,F.
     The SHARK Integral Generation and Digestion System
     J. Comp. Chem., 2022  1-16
     doi.org/10.1002/jcc.26942

List of suggested additional citations. These are papers that are important in the 'surrounding' of 
of this run, or papers that preceded the highly important papers. If you like your results we are grateful for a citation.

  1. Izsak,R.; Neese,F.
     An overlap fitted chain of spheres exchange method
     J. Chem. Phys., 2011 135 144105
     doi.org/10.1063/1.3646921
  2. Izsak,R.; Hansen,A.; Neese,F.
     The resolution of identity and chain of spheres approximations for the LPNO-CCSD singles Fock term
     Molec. Phys., 2012 110 2413-2417
     doi.org/10.1080/00268976.2012.687466
  3. Neese,F.
     The ORCA program system
     WIRES Comput. Molec. Sci., 2012 2(1)73-78
     doi.org/10.1002/wcms.81
  4. Izsak,R.; Neese,F.; Klopper,W.
     Robust fitting techniques in the chain of spheres approximation to the Fock exchange: The role of the complementary space
     J. Chem. Phys., 2013 139 
     doi.org/10.1063/1.4819264
  5. Neese,F.
     Software update: the ORCA program system, version 4.0
     WIRES Comput. Molec. Sci., 2018 8(1)1-6
     doi.org/10.1002/wcms.1327
  6. Neese,F.; Wennmohs,F.; Becker,U.; Riplinger,C.
     The ORCA quantum chemistry program package
     J. Chem. Phys., 2020 152 Art. No. L224108
     doi.org/10.1063/5.0004608

List of optional additional citations

  1. Neese,F.
     Approximate second-order SCF convergence for spin unrestricted wavefunctions
     Chem. Phys. Lett., 2000 325(1-3)93-98
     doi.org/10.1016/s0009-2614(00)00662-x

Timings for individual modules:

Sum of individual times          ...      214.136 sec (=   3.569 min)
Startup calculation              ...        0.815 sec (=   0.014 min)   0.4 %
SCF iterations                   ...       13.616 sec (=   0.227 min)   6.4 %
Property calculations            ...        0.063 sec (=   0.001 min)   0.0 %
SCF Gradient evaluation          ...       11.268 sec (=   0.188 min)   5.3 %
Geometry relaxation              ...        0.005 sec (=   0.000 min)   0.0 %
Numerical frequency calculation  ...      188.370 sec (=   3.139 min)  88.0 %
                             ****ORCA TERMINATED NORMALLY****
TOTAL RUN TIME: 0 days 0 hours 3 minutes 25 seconds 491 msec
