
                                 *****************
                                 * O   R   C   A *
                                 *****************

                                            #,                                       
                                            ###                                      
                                            ####                                     
                                            #####                                    
                                            ######                                   
                                           ########,                                 
                                     ,,################,,,,,                         
                               ,,#################################,,                 
                          ,,##########################################,,             
                       ,#########################################, ''#####,          
                    ,#############################################,,   '####,        
                  ,##################################################,,,,####,       
                ,###########''''           ''''###############################       
              ,#####''   ,,,,##########,,,,          '''####'''          '####       
            ,##' ,,,,###########################,,,                        '##       
           ' ,,###''''                  '''############,,,                           
         ,,##''                                '''############,,,,        ,,,,,,###''
      ,#''                                            '''#######################'''  
     '                                                          ''''####''''         
             ,#######,   #######,   ,#######,      ##                                
            ,#'     '#,  ##    ##  ,#'     '#,    #''#        ,####,   ,####,        
            ##       ##  ##   ,#'  ##            #'  '#       #'       #'  '#        
            ##       ##  #######   ##           ,######,      #####,   #    #        
            '#,     ,#'  ##    ##  '#,     ,#' ,#      #,     #,   #   #,  ,#        
             '#######'   ##     ##  '#######'  #'      '#     '####' # '####'        



                #########################################################
                #                        -***-                          #
                #          Department of theory and spectroscopy        #
                #                                                       #
                #                      Frank Neese                      #
                #                                                       #
                #     Directorship, Architecture, Infrastructure        #
                #                    SHARK, DRIVERS                     #
                #        Core code/Algorithms in most modules           #
                #                                                       #
                #        Max Planck Institute fuer Kohlenforschung      #
                #                Kaiser Wilhelm Platz 1                 #
                #                 D-45470 Muelheim/Ruhr                 #
                #                      Germany                          #
                #                                                       #
                #                  All rights reserved                  #
                #                        -***-                          #
                #########################################################


                         Program Version 6.0.1  -  RELEASE   -


 With contributions from (in alphabetic order):
[Max-Planck-Institut fuer Kohlenforschung]                               
  Daniel Aravena         : Magnetic Suceptibility                        
  Michael Atanasov       : Ab Initio Ligand Field Theory (pilot matlab implementation)
  Alexander A. Auer      : GIAO ZORA, VPT2 properties, NMR spectrum      
  Ute Becker             : All parallelization in ORCA, NUMFREQ, NUMCALC 
  Giovanni Bistoni       : ED, misc. LED, open-shell LED, HFLD           
  Martin Brehm           : Molecular dynamics                            
  Dmytro Bykov           : pre 5.0 version of the SCF Hessian            
  Marcos Casanova-Páez   : Triplet and SCS-CIS(D). UHF-(DLPNO)-IP/EA/STEOM-CCSD. UHF-CVS-IP/STEOM-CCSD   
  Vijay G. Chilkuri      : MRCI spin determinant printing, contributions to CSF-ICE 
  Pauline Colinet        : FMM embedding                                 
  Dipayan Datta          : RHF DLPNO-CCSD density                        
  Achintya Kumar Dutta   : EOM-CC, STEOM-CC                              
  Nicolas Foglia         : Exact transition moments, OPA infrastructure, MCD improvements    
  Dmitry Ganyushin       : Spin-Orbit,Spin-Spin,Magnetic field MRCI      
  Miquel Garcia-Rates    : C-PCM and meta-GGA Hessian, CCSD/C-PCM, Gaussian charge scheme 
  Tiago L. C. Gouveia    : GS-ROHF, GS-ROCIS                             
  Yang Guo               : DLPNO-NEVPT2, F12-NEVPT2, CIM, IAO-localization        
  Andreas Hansen         : Spin unrestricted coupled pair/coupled cluster methods 
  Ingolf Harden          : AUTO-CI MPn and infrastructure                
  Benjamin Helmich-Paris : MC-RPA, TRAH-(SCF,CASSCF), AVAS, COSX integrals, SCF dyn. polar. 
  Lee Huntington         : MR-EOM, pCC                                   
  Robert Izsak           : Overlap fitted RIJCOSX, COSX-SCS-MP3, EOM     
  Riya Kayal             : Wick's Theorem for AUTO-CI, AUTO-CI UHF-CCSDT 
  Emily Kempfer          : AUTO-CI, RHF CISDT and CCSDT                  
  Christian Kollmar      : KDIIS, OOCD, Brueckner-CCSD(T), CCSD density, CASPT2, CASPT2-K, improved NEVPT2 
  Axel Koslowski         : Symmetry handling                             
  Simone Kossmann        : meta-GGA functionals, TD-DFT gradient, OOMP2, (MP2 Hessian; deprecated post 5.0) 
  Lucas Lang             : DCDCAS                                        
  Marvin Lechner         : AUTO-CI (C++ implementation), FIC-MRCC        
  Spencer Leger          : CASSCF response                               
  Dagmar Lenk            : GEPOL surface, SMD, ORCA-2-JSON               
  Dimitrios Liakos       : Extrapolation schemes; Compound Job, initial MDCI parallelization 
  Dimitrios Manganas     : Further ROCIS development; embedding schemes. LFT, Crystal Embedding 
  Dimitrios Pantazis     : SARC Basis sets                               
  Anastasios Papadopoulos: AUTO-CI, single reference methods and gradients 
  Taras Petrenko         : pre 6.0 DFT Hessian and TD-DFT gradient, (ASA, deprecated), ECA, 1-Electron XAS/XES, NRVS 
  Peter Pinski           : DLPNO-MP2, DLPNO-MP2 Gradient                 
  Christoph Reimann      : Effective Core Potentials                     
  Marius Retegan         : Local ZFS, SOC                                
  Christoph Riplinger    : Optimizer, TS searches, QM/MM, DLPNO-CCSD(T), (RO)-DLPNO pert. Triples 
  Michael Roemelt        : Original ROCIS implementation                 
  Masaaki Saitow         : Open-shell DLPNO-CCSD energy and density      
  Barbara Sandhoefer     : DKH picture change effects                    
  Kantharuban Sivalingam : CASSCF convergence/infrastructure, NEVPT2 and variants, FIC-MRCI 
  Bernardo de Souza      : ESD, SOC TD-DFT                               
  Georgi L. Stoychev     : AutoAux, RI-MP2 NMR, DLPNO-MP2 response, X2C  
  Van Anh Tran           : RI-MP2 g-tensors                              
  Willem Van den Heuvel  : Paramagnetic NMR                              
  Zikuan Wang            : NOTCH, Electric field optimization            
  Frank Wennmohs         : Technical directorship and infrastructure     
  Hang Xu                : AUTO-CI-Response properties                   
                                                                         
[FACCTs GmbH]                                                            
  Markus Bursch, Miquel Garcia-Rates, Christoph Riplinger, Bernardo de Souza, Georgi L. Stoychev 
                                                                 
  APM, Basis sets (HGBS, AHGBS, def-TZVP (Ac-Lr), def2-XVPD (La-Lu)), CI-OPT, improved COSX, DLPNO-Multilevel,           
  DOCKER, DRACO, updates on ESD, GOAT, IRC, LR-CPCM, MBIS, meta-GGA TD-DFT gradient, ML-optimized integration grids, 
  MM, NACMEs, nearIR, NEB, NEB-TS, NL-DFT gradient (VV10), 2- and 3-layer-ONIOM, interface openCOSMO-RS, QMMM,   
  Crystal-QMMM, SF, symmetry and pop. for TD-DFT, r2SCAN hybrids, SOLVATOR                                   
                                                                         
[Other institutions]                                                     
  V. Asgeirsson          : NEB                                           
  Christoph Bannwarth    : sTDA-DFT, sTD-DFT, PBEh-3c, B97-3c, D3        
  Sebastian Ehlert       : rSCAN, r2SCAN, r2SCAN-3c, D4, dhf basis sets  
  Marvin Friede          : D4 for Fr, Ra, Ac-Lr                          
  Lars Goerigk           : TD-DFT with DH, B97 family of functionals     
  Stefan Grimme          : VdW corrections, initial TS optimization, DFT functionals, gCP, sTDA/sTD-DF 
  Waldemar Hujo          : DFT-NL                                        
  H. Jonsson             : NEB                                           
  Holger Kruse           : gCP                                           
  Marcel Mueller         : wB97X-3c, vDZP basis set                      
  Hagen Neugebauer       : wr2SCAN                                       
  Tobias Risthaus        : range-separated hybrid DFT                    
  Lukas Wittmann         : regularized MP2, r2SCAN double-hybrids, wr2SCAN        
                                                                         
We gratefully acknowledge several colleagues who have allowed us to      
interface, adapt or use parts of their codes:                            
  Ed Valeev, F. Pavosevic, A. Kumar             : LibInt (2-el integral package), F12 methods 
  Garnet Chan, S. Sharma, J. Yang, R. Olivares  : DMRG                   
  Ulf Ekstrom                                   : XCFun DFT Library      
  Mihaly Kallay                                 : mrcc  (arbitrary order and MRCC methods)
  Frank Weinhold                                : gennbo (NPA and NBO analysis)           
  Simon Mueller                                 : openCOSMO-RS                            
  Christopher J. Cramer and Donald G. Truhlar   : smd solvation model                     
  S Lehtola, MJT Oliveira, MAL Marques          : LibXC Library                           
  Liviu Ungur et al                             : ANISO software                          


 Your calculation uses the libint2 library for the computation of 2-el integrals
 For citations please refer to: http://libint.valeyev.net

 Your ORCA version has been built with support for libXC version: 6.2.2
 For citations please refer to: https://libxc.gitlab.io

 This ORCA versions uses:
   CBLAS   interface :  Fast vector & matrix operations
   LAPACKE interface :  Fast linear algebra routines
   SCALAPACK package :  Parallel linear algebra routines
   Shared memory     :  Shared parallel matrices
   BLAS/LAPACK       :  OpenBLAS 0.3.27  USE64BITINT DYNAMIC_ARCH NO_AFFINITY SkylakeX SINGLE_THREADED
        Core in use  :  SkylakeX
   Copyright (c) 2011-2014, The OpenBLAS Project


NOTE: MaxCore=2000 MB was set to SCF,MP2,MDCI,CIPSI,MRCI and CIS
      => If you want to overwrite this, your respective input block should be placed after the MaxCore statement
Warning: RI is on but no J-basis has been assigned. Assigning Def2/J (nothing to worry about!)
================================================================================

----- Orbital basis set information -----
Your calculation utilizes the basis: def2-TZVPD
   F. Weigend and R. Ahlrichs, Phys. Chem. Chem. Phys. 7, 3297 (2005).
   D. Rappoport and F. Furche, J. Chem. Phys. 133, 134105 (2010)
   D. Rappoport, J. Chem. Phys. 155, 124102 (2021).

----- AuxJ basis set information -----
Your calculation utilizes the auxiliary basis: def2/J
   F. Weigend, Phys. Chem. Chem. Phys. 8, 1057 (2006).

================================================================================
                                        WARNINGS
                       Please study these warnings very carefully!
================================================================================

WARNING: Gradients needed for Numerical Frequencies
  ===> : Setting RunTyp to EnGrad

================================================================================
                                       INPUT FILE
================================================================================
NAME = co2_freq.inp
|  1> ! B3LYP def2-TZVPD NumFreq TightSCF
|  2> 
|  3> %maxcore 2000
|  4> 
|  5> %output
|  6>   PrintLevel 5
|  7> end
|  8> 
|  9> * xyz 0 1
| 10> C   -0.000004733671   0.000000040738   0.000000018006
| 11> O    2.192162745434  -0.000000015292  -0.000000006759
| 12> O   -2.192159191705  -0.000000015292  -0.000000006759
| 13> *
| 14> 
| 15>                          ****END OF INPUT****
================================================================================

                     *******************************
                     * Energy+Gradient Calculation *
                     *******************************

---------------------------------
CARTESIAN COORDINATES (ANGSTROEM)
---------------------------------
  C     -0.000005    0.000000    0.000000
  O      2.192163   -0.000000   -0.000000
  O     -2.192159   -0.000000   -0.000000

----------------------------
CARTESIAN COORDINATES (A.U.)
----------------------------
  NO LB      ZA    FRAG     MASS         X           Y           Z
   0 C     6.0000    0    12.011   -0.000009    0.000000    0.000000
   1 O     8.0000    0    15.999    4.142587   -0.000000   -0.000000
   2 O     8.0000    0    15.999   -4.142581   -0.000000   -0.000000

--------------------------------
INTERNAL COORDINATES (ANGSTROEM)
--------------------------------
 C      0   0   0     0.000000000000     0.00000000     0.00000000
 O      1   0   0     2.192167479105     0.00000000     0.00000000
 O      1   2   0     2.192154458034   179.99999669     0.00000000

---------------------------
INTERNAL COORDINATES (A.U.)
---------------------------
 C      0   0   0     0.000000000000     0.00000000     0.00000000
 O      1   0   0     4.142596175197     0.00000000     0.00000000
 O      1   2   0     4.142571568939   179.99999669     0.00000000

---------------------
BASIS SET INFORMATION
---------------------
There are 2 groups of distinct atoms

 Group   1 Type C   : 12s6p3d1f contracted to 6s3p3d1f pattern {621111/411/111/1}
 Group   2 Type O   : 12s7p3d1f contracted to 6s4p3d1f pattern {621111/4111/111/1}

Atom   0C    basis set group =>   1
Atom   1O    basis set group =>   2
Atom   2O    basis set group =>   2

-------------------------
BASIS SET IN INPUT FORMAT
-------------------------

 # Basis set for element : C 
 NewGTO C 
 S 6 
   1   13575.3496820000      0.0006064549
   2    2035.2333680000      0.0046979088
   3     463.2256235900      0.0243324776
   4     131.2001959800      0.0973999683
   5      42.8530158910      0.3019558425
   6      15.5841857660      0.6623360915
 S 2 
   1       6.2067138508      0.6559530854
   2       2.5764896527      0.3758563329
 S 1 
   1       0.5769633942      1.0000000000
 S 1 
   1       0.2297283136      1.0000000000
 S 1 
   1       0.0951644400      1.0000000000
 P 4 
   1      34.6972322440      0.0113272200
   2       7.9582622826      0.0761696592
   3       2.3780826883      0.3019225220
   4       0.8143320818      0.7278502735
 P 1 
   1       0.2888754725      1.0000000000
 P 1 
   1       0.1005682367      1.0000000000
 D 1 
   1       1.0970000000      1.0000000000
 D 1 
   1       0.3180000000      1.0000000000
 F 1 
   1       0.7610000000      1.0000000000
 S 1 
   1       0.0484754014      1.0000000000
 D 1 
   1       0.0909853364      1.0000000000
  end;

 # Basis set for element : O 
 NewGTO O 
 S 6 
   1   27032.3826310000      0.0005722733
   2    4052.3871392000      0.0044353233
   3     922.3272271000      0.0230201076
   4     261.2407098900      0.0928224906
   5      85.3546413510      0.2937850002
   6      31.0350352450      0.6740160450
 S 2 
   1      12.2608607280      0.6383993702
   2       4.9987076005      0.3953458713
 S 1 
   1       1.1703108158      1.0000000000
 S 1 
   1       0.4647474099      1.0000000000
 S 1 
   1       0.1850453636      1.0000000000
 P 4 
   1      63.2749548010      0.0120183321
   2      14.6270493790      0.0830054217
   3       4.4501223456      0.3199174393
   4       1.5275799647      0.7071554292
 P 1 
   1       0.5293511794      1.0000000000
 P 1 
   1       0.1747842127      1.0000000000
 D 1 
   1       2.3140000000      1.0000000000
 D 1 
   1       0.6450000000      1.0000000000
 F 1 
   1       1.4280000000      1.0000000000
 S 1 
   1       0.0702880263      1.0000000000
 P 1 
   1       0.0511127457      1.0000000000
 D 1 
   1       0.1469647737      1.0000000000
  end;

---------------------------------
AUXILIARY/J BASIS SET INFORMATION
---------------------------------
There are 2 groups of distinct atoms

 Group   1 Type C   : 12s5p4d2f1g contracted to 6s4p3d1f1g pattern {711111/2111/211/2/1}
 Group   2 Type O   : 12s5p4d2f1g contracted to 6s4p3d1f1g pattern {711111/2111/211/2/1}

Atom   0C    basis set group =>   1
Atom   1O    basis set group =>   2
Atom   2O    basis set group =>   2

-------------------------------------
AUXILIARY/J BASIS SET IN INPUT FORMAT
-------------------------------------

 # Auxiliary/J basis set for element : C 
 NewAuxJGTO C 
 S 7 
   1    1861.0916331000      0.0134602335
   2     642.9939764000      0.0299160374
   3     235.1105725000      0.1008649584
   4      90.7028894000      0.2370970548
   5      36.7794552000      0.3924037254
   6      15.6046273000      0.3195862154
   7       6.8907294000      0.0530104441
 S 1 
   1       3.1478850000     -1.0000000000
 S 1 
   1       1.4777287000      1.0000000000
 S 1 
   1       0.7076466000      1.0000000000
 S 1 
   1       0.3430122000      1.0000000000
 S 1 
   1       0.1669453000      1.0000000000
 P 2 
   1      13.5472892000     -0.6769313712
   2       5.4669419000     -0.3779500978
 P 1 
   1       2.1751721000      1.0000000000
 P 1 
   1       0.8582194000      1.0000000000
 P 1 
   1       0.3376720000      1.0000000000
 D 2 
   1       5.9287253000     -0.3533329857
   2       1.9809209000     -0.7456525731
 D 1 
   1       0.8055417000     -1.0000000000
 D 1 
   1       0.3531244000     -1.0000000000
 F 2 
   1       1.6755626000      0.6311076882
   2       0.5997536000      0.4968166032
 G 1 
   1       1.0024600000     -1.0000000000
  end;

 # Auxiliary/J basis set for element : O 
 NewAuxJGTO O 
 S 7 
   1    2876.8216605000      0.0168151159
   2    1004.7443032000      0.0340137548
   3     369.7579954000      0.1194951309
   4     142.9442404000      0.2664627624
   5      57.8366425000      0.4202764046
   6      24.3864983000      0.2765077335
   7      10.6622662000      0.0057008815
 S 1 
   1       4.8070437000     -1.0000000000
 S 1 
   1       2.2210770000      1.0000000000
 S 1 
   1       1.0447795000      1.0000000000
 S 1 
   1       0.4968425000      1.0000000000
 S 1 
   1       0.2371384000      1.0000000000
 P 2 
   1      64.2613382000     -0.2731534179
   2      16.3006076000     -0.8168011598
 P 1 
   1       4.3550542000      1.0000000000
 P 1 
   1       1.2019554000      1.0000000000
 P 1 
   1       0.3354196000      1.0000000000
 D 2 
   1       9.2146611000     -0.4661230638
   2       2.8435251000     -0.6600908911
 D 1 
   1       0.9955759000     -1.0000000000
 D 1 
   1       0.3649441000     -1.0000000000
 F 2 
   1       2.6420115000      0.5931563945
   2       0.7345613000      0.5931563945
 G 1 
   1       1.3931000000     -1.0000000000
  end;

------------------------------------------------------------------------------
                             ORCA STARTUP CALCULATIONS
                           -- RI-GTO INTEGRALS CHOSEN --
------------------------------------------------------------------------------
------------------------------------------------------------------------------
                   ___                                                        
                  /   \      - P O W E R E D   B Y -                         
                 /     \                                                     
                 |  |  |   _    _      __       _____    __    __             
                 |  |  |  | |  | |    /  \     |  _  \  |  |  /  |          
                  \  \/   | |  | |   /    \    | | | |  |  | /  /          
                 / \  \   | |__| |  /  /\  \   | |_| |  |  |/  /          
                |  |  |   |  __  | /  /__\  \  |    /   |      \           
                |  |  |   | |  | | |   __   |  |    \   |  |\   \          
                \     /   | |  | | |  |  |  |  | |\  \  |  | \   \       
                 \___/    |_|  |_| |__|  |__|  |_| \__\ |__|  \__/        
                                                                              
                      - O R C A' S   B I G   F R I E N D -                    
                                      &                                       
                       - I N T E G R A L  F E E D E R -                       
                                                                              
 v1 FN, 2020, v2 2021, v3 2022-2024                                           
------------------------------------------------------------------------------


----------------------
SHARK INTEGRAL PACKAGE
----------------------

Number of atoms                             ...      3
Number of basis functions                   ...    117
Number of shells                            ...     41
Maximum angular momentum                    ...      3
Integral batch strategy                     ... SHARK/LIBINT Hybrid
RI-J (if used) integral strategy            ... SPLIT-RIJ (Revised 2003 algorithm where possible)
Printlevel                                  ...      1
Contraction scheme used                     ... SEGMENTED contraction
Prescreening option                         ... SCHWARTZ
   Thresh                                   ... 2.500e-11
   Tcut                                     ... 2.500e-12
   Tpresel                                  ... 2.500e-12 
Coulomb Range Separation                    ... NOT USED
Exchange Range Separation                   ... NOT USED
Multipole approximations                    ... NOT USED
Finite Nucleus Model                        ... NOT USED
CABS basis                                  ... NOT available
Auxiliary Coulomb fitting basis             ... AVAILABLE
   # of basis functions in Aux-J            ...    147
   # of shells in Aux-J                     ...     45
   Maximum angular momentum in Aux-J        ...      4
Auxiliary J/K fitting basis                 ... NOT available
Auxiliary Correlation fitting basis         ... NOT available
Auxiliary 'external' fitting basis          ... NOT available

Checking pre-screening integrals            ... done (  0.0 sec) Dimension = 41
Check shell pair data                       ... done (  0.0 sec)
Shell pair information
Shell pair cut-off parameter TPreSel        ...   2.5e-12
Total number of shell pairs                 ...       861
Shell pairs after pre-screening             ...       801
Total number of primitive shell pairs       ...      2412
Primitive shell pairs kept                  ...      1869
          la=0 lb=0:    150 shell pairs
          la=1 lb=0:    188 shell pairs
          la=1 lb=1:     65 shell pairs
          la=2 lb=0:    150 shell pairs
          la=2 lb=1:     97 shell pairs
          la=2 lb=2:     42 shell pairs
          la=3 lb=0:     48 shell pairs
          la=3 lb=1:     31 shell pairs
          la=3 lb=2:     25 shell pairs
          la=3 lb=3:      5 shell pairs

Calculating one electron integrals          ... done (  0.0 sec)
Calculating RI/J V-Matrix + Cholesky decomp.... done (  0.0 sec)
Calculating Nuclear repulsion               ... done (  0.0 sec) ENN=     30.898589854489 Eh

Diagonalization of the overlap matrix:
Smallest eigenvalue                        ... 1.082e-03
Time for diagonalization                   ...    0.001 sec
Threshold for overlap eigenvalues          ... 1.000e-07
Number of eigenvalues below threshold      ... 0
Time for construction of square roots      ...    0.000 sec
Total time needed                          ...    0.002 sec

-------------------
DFT GRID GENERATION
-------------------

General Integration Accuracy     IntAcc      ... 4.388
Radial Grid Type                 RadialGrid  ... OptM3 with GC (2021)
Angular Grid (max. ang.)         AngularGrid ... 4 (Lebedev-302)
Angular grid pruning method      GridPruning ... 4 (adaptive)
Weight generation scheme         WeightScheme... mBecke (2022)
Basis function cutoff            BFCut       ... 1.0000e-11
Integration weight cutoff        WCut        ... 1.0000e-14
Partially contracted basis set               ... off
Rotationally invariant grid construction     ... off
Angular grids for H and He will be reduced by one unit
Diffuse basis detected: some atoms will have their outermost
                        angular grid increased by 1.

Total number of grid points                  ...    19368
Total number of batches                      ...      304
Average number of points per batch           ...       63
Average number of grid points per atom       ...     6456

--------------------
COSX GRID GENERATION
--------------------

GRIDX 1
-------
General Integration Accuracy     IntAcc      ... 3.816
Radial Grid Type                 RadialGrid  ... OptM3 with GC (2021)
Angular Grid (max. ang.)         AngularGrid ... 1 (Lebedev-50)
Angular grid pruning method      GridPruning ... 4 (adaptive)
Weight generation scheme         WeightScheme... mBecke (2022)
Basis function cutoff            BFCut       ... 1.0000e-11
Integration weight cutoff        WCut        ... 1.0000e-14
Partially contracted basis set               ... on
Rotationally invariant grid construction     ... off
Angular grids for H and He will be reduced by one unit
Diffuse basis detected: some atoms will have their outermost
                        angular grid increased by 1.

Total number of grid points                  ...     2448
Total number of batches                      ...       21
Average number of points per batch           ...      116
Average number of grid points per atom       ...      816
UseSFitting                                  ... on

GRIDX 2
-------
General Integration Accuracy     IntAcc      ... 4.020
Radial Grid Type                 RadialGrid  ... OptM3 with GC (2021)
Angular Grid (max. ang.)         AngularGrid ... 2 (Lebedev-110)
Angular grid pruning method      GridPruning ... 4 (adaptive)
Weight generation scheme         WeightScheme... mBecke (2022)
Basis function cutoff            BFCut       ... 1.0000e-11
Integration weight cutoff        WCut        ... 1.0000e-14
Partially contracted basis set               ... on
Rotationally invariant grid construction     ... off
Angular grids for H and He will be reduced by one unit
Diffuse basis detected: some atoms will have their outermost
                        angular grid increased by 1.

Total number of grid points                  ...     6892
Total number of batches                      ...       56
Average number of points per batch           ...      123
Average number of grid points per atom       ...     2297
UseSFitting                                  ... on

GRIDX 3
-------
General Integration Accuracy     IntAcc      ... 4.338
Radial Grid Type                 RadialGrid  ... OptM3 with GC (2021)
Angular Grid (max. ang.)         AngularGrid ... 3 (Lebedev-194)
Angular grid pruning method      GridPruning ... 4 (adaptive)
Weight generation scheme         WeightScheme... mBecke (2022)
Basis function cutoff            BFCut       ... 1.0000e-11
Integration weight cutoff        WCut        ... 1.0000e-14
Partially contracted basis set               ... on
Rotationally invariant grid construction     ... off
Angular grids for H and He will be reduced by one unit
Diffuse basis detected: some atoms will have their outermost
                        angular grid increased by 1.

Total number of grid points                  ...    14882
Total number of batches                      ...      118
Average number of points per batch           ...      126
Average number of grid points per atom       ...     4961
UseSFitting                                  ... on
Initializing property integral containers    ... done (  0.0 sec)

SHARK setup successfully completed in   0.3 seconds

Maximum memory used throughout the entire STARTUP-calculation: 13.8 MB
-------------------------------------------------------------------------------
                                 ORCA GUESS
                   Start orbitals & Density for SCF / CASSCF
-------------------------------------------------------------------------------

------------
SCF SETTINGS
------------
Hamiltonian:
 Density Functional     Method          .... DFT(GTOs)
 Exchange Functional    Exchange        .... B88
   X-Alpha parameter    XAlpha          ....  0.666667
   Becke's b parameter  XBeta           ....  0.004200
 Correlation Functional Correlation     .... LYP
 LDA part of GGA corr.  LDAOpt          .... VWN-5
 Gradients option       PostSCFGGA      .... off
 Hybrid DFT is turned on
   Fraction HF Exchange ScalHFX         ....  0.200000
   Scaling of DF-GGA-X  ScalDFX         ....  0.720000
   Scaling of DF-GGA-C  ScalDFC         ....  0.810000
   Scaling of DF-LDA-C  ScalLDAC        ....  1.000000
   Perturbative correction              ....  0.000000
   NL short-range parameter             ....  4.800000
 RI-approximation to the Coulomb term is turned on
   Number of AuxJ basis functions       .... 147
   RIJ-COSX (HFX calculated with COS-X)).... on


General Settings:
 Integral files         IntName         .... co2_freq
 Hartree-Fock type      HFTyp           .... RHF
 Total Charge           Charge          ....    0
 Multiplicity           Mult            ....    1
 Number of Electrons    NEL             ....   22
 Basis Dimension        Dim             ....  117
 Nuclear Repulsion      ENuc            ....     30.8985898545 Eh

Convergence Acceleration:
 AO-DIIS                CNVDIIS         .... on
   Start iteration      DIISMaxIt       ....    12
   Startup error        DIISStart       ....  0.200000
   # of expansion vecs  DIISMaxEq       ....     5
   Bias factor          DIISBfac        ....   1.050
   Max. coefficient     DIISMaxC        ....  10.000
 MO-DIIS                CNVKDIIS        .... off
 Trust-Rad. Augm. Hess. CNVTRAH         .... auto
   Auto Start mean grad. ratio tolernc. ....  1.125000
   Auto Start start iteration           ....    50
   Auto Start num. interpolation iter.  ....    10
   Max. Number of Micro iterations      ....    24
   Max. Number of Macro iterations      .... Maxiter - #DIIS iter
   Number of Davidson start vectors     ....     2
   Converg. threshold    (grad. norm)   ....   1.000e-05
   Grad. Scal. Fac. for Micro threshold ....   0.100
   Minimum threshold for Micro iter.    ....   1.000e-02
   NR start threshold (gradient norm)   ....   1.000e-04
   Initial trust radius                 ....   0.400
   Minimum AH scaling param. (alpha)    ....   1.000
   Maximum AH scaling param. (alpha)    .... 1000.000
   Quad. conv. algorithm                .... NR
   White noise on init. David. guess    .... on
   Maximum white noise                  ....   0.010
   Pseudo random numbers                .... off
   Inactive MOs                         .... canonical
   Orbital update algorithm             .... Taylor
   Preconditioner                       .... Diag
   Full preconditioner red. dimension   ....   250
 SOSCF                  CNVSOSCF        .... on
   Start iteration      SOSCFMaxIt      ....   150
   Startup grad/error   SOSCFStart      ....  0.003300
   Hessian update       SOSCFHessUp     .... L-BFGS
 Level Shifting         CNVShift        .... on
   Level shift para.    LevelShift      ....    0.2500
   Turn off err/grad.   ShiftErr        ....    0.0010
 Zerner damping         CNVZerner       .... off
 Static damping         CNVDamp         .... on
   Fraction old density DampFac         ....    0.7000
   Max. Damping (<1)    DampMax         ....    0.9800
   Min. Damping (>=0)   DampMin         ....    0.0000
   Turn off err/grad.   DampErr         ....    0.1000

SCF Procedure:
 Maximum # iterations   MaxIter         ....   125
 SCF integral mode      SCFMode         .... Direct
   Integral package                     .... SHARK and LIBINT hybrid scheme
 Reset frequency        DirectResetFreq ....    20
 Integral Threshold     Thresh          ....  2.500e-11 Eh
 Primitive CutOff       TCut            ....  2.500e-12 Eh

Convergence Tolerance:
 Convergence Check Mode ConvCheckMode   .... Total+1el-Energy
 Convergence forced     ConvForced      .... 0
 Energy Change          TolE            ....  1.000e-08 Eh
 1-El. energy change                    ....  1.000e-05 Eh
 Orbital Gradient       TolG            ....  1.000e-05
 Orbital Rotation angle TolX            ....  1.000e-05
 DIIS Error             TolErr          ....  5.000e-07

------------------------------
INITIAL GUESS: MODEL POTENTIAL
------------------------------
Loading Hartree-Fock densities                     ... done
Calculating cut-offs                               ... done
Initializing the effective Hamiltonian             ... done
Setting up the integral package (SHARK)            ... done
Starting the Coulomb interaction                   ... done (   0.0 sec)
Making the grid                                    ... done (   0.0 sec)
Mapping shells                                     ... done
Starting the XC term evaluation                    ... done (   0.0 sec)
  promolecular density results
     # of electrons  =     22.000167284
     EX              =    -21.109893898
     EC              =     -0.742509473
     EX+EC           =    -21.852403372
Transforming the Hamiltonian                       ... done (   0.0 sec)
Diagonalizing the Hamiltonian                      ... done (   0.0 sec)
Back transforming the eigenvectors                 ... done (   0.0 sec)
Now organizing SCF variables                       ... done
                      ------------------
                      INITIAL GUESS DONE (   0.1 sec)
                      ------------------
----------------------
INITIAL GUESS ORBITALS
----------------------
                      0         1         2         3         4         5   
                 -18.92855 -18.92854 -10.01643  -0.86817  -0.86743  -0.48584
                   2.00000   2.00000   2.00000   2.00000   2.00000   2.00000
                  --------  --------  --------  --------  --------  --------
  0C   1s        -0.000020  0.000000 -0.467552  0.008124 -0.000001 -0.107104
  0C   2s         0.000095 -0.000000 -0.607731  0.016711 -0.000003 -0.225922
  0C   3s        -0.000560  0.000002 -0.039707 -0.023276  0.000004  0.385365
  0C   4s         0.003673 -0.000011  0.033725 -0.037935  0.000006  0.480778
  0C   5s        -0.008406  0.000025 -0.022750 -0.000504  0.000000  0.155471
  0C   1pz       -0.000000  0.000000  0.000000  0.000000  0.000000 -0.000000
  0C   1px       -0.000000 -0.000064  0.000000  0.000004  0.018042 -0.000001
  0C   1py       -0.000000  0.000000  0.000000  0.000000  0.000000 -0.000000
  0C   2pz        0.000000 -0.000000 -0.000000  0.000000  0.000000 -0.000000
  0C   2px        0.000002  0.000825 -0.000000  0.000004  0.018497 -0.000000
  0C   2py        0.000000 -0.000000 -0.000000  0.000000 -0.000000 -0.000000
  0C   3pz        0.000000 -0.000000  0.000000  0.000000 -0.000000  0.000000
  0C   3px        0.000012  0.003973  0.000000 -0.000001 -0.004873  0.000000
  0C   3py        0.000000 -0.000000  0.000000  0.000000  0.000000  0.000000
  0C   1dz2      -0.000001  0.000000  0.000157  0.000979 -0.000000 -0.000715
  0C   1dxz      -0.000000 -0.000000 -0.000000  0.000000 -0.000000  0.000000
  0C   1dyz      -0.000000  0.000000  0.000000  0.000000  0.000000 -0.000000
  0C   1dx2y2     0.000001 -0.000000 -0.000273 -0.001695  0.000000  0.001238
  0C   1dxy      -0.000000 -0.000000 -0.000000  0.000000 -0.000000 -0.000000
  0C   2dz2       0.000369 -0.000001 -0.000515  0.003378 -0.000001 -0.002053
  0C   2dxz      -0.000000 -0.000000  0.000000  0.000000 -0.000000  0.000000
  0C   2dyz       0.000000 -0.000000 -0.000000 -0.000000 -0.000000  0.000000
  0C   2dx2y2    -0.000639  0.000002  0.000893 -0.005850  0.000001  0.003557
  0C   2dxy      -0.000000 -0.000000  0.000000 -0.000000 -0.000000  0.000000
  0C   1f0       -0.000000 -0.000000  0.000000 -0.000000 -0.000000  0.000000
  0C   1f+1       0.000000  0.000010  0.000000 -0.000000 -0.000986  0.000000
  0C   1f-1      -0.000000  0.000000  0.000000 -0.000000  0.000000  0.000000
  0C   1f+2       0.000000  0.000000 -0.000000  0.000000  0.000000 -0.000000
  0C   1f-2      -0.000000  0.000000 -0.000000  0.000000 -0.000000  0.000000
  0C   1f+3       0.000000  0.000013  0.000000 -0.000000 -0.001273  0.000000
  0C   1f-3      -0.000000  0.000000  0.000000 -0.000000 -0.000000  0.000000
  0C   6s        -0.001375  0.000004 -0.001407  0.002725 -0.000000 -0.019070
  0C   3dz2       0.002759 -0.000008  0.002624 -0.002506  0.000000  0.007628
  0C   3dxz      -0.000000 -0.000000 -0.000000  0.000000  0.000000 -0.000000
  0C   3dyz      -0.000000  0.000000 -0.000000 -0.000000  0.000000  0.000000
  0C   3dx2y2    -0.004779  0.000014 -0.004544  0.004340 -0.000001 -0.013212
  0C   3dxy      -0.000000 -0.000000  0.000000  0.000000  0.000000  0.000000
  1O   1s         0.307131 -0.308928  0.000003  0.078250 -0.078510  0.011203
  1O   2s         0.450315 -0.453019 -0.000057  0.183100 -0.183699  0.026626
  1O   3s         0.025643 -0.025266  0.000431 -0.281908  0.282732 -0.044821
  1O   4s        -0.018322  0.016561 -0.000779 -0.359841  0.361435 -0.057466
  1O   5s         0.014206 -0.009623  0.002442 -0.156029  0.154923 -0.028687
  1O   1pz        0.000000  0.000000  0.000000 -0.000000  0.000000  0.000000
  1O   1px       -0.000144  0.000166 -0.000205  0.003434 -0.003005 -0.104916
  1O   1py        0.000000  0.000000  0.000000 -0.000000  0.000000  0.000000
  1O   2pz       -0.000000 -0.000000 -0.000000 -0.000000  0.000000  0.000000
  1O   2px        0.000681 -0.000703  0.000537  0.003583 -0.003139 -0.085031
  1O   2py       -0.000000 -0.000000 -0.000000 -0.000000  0.000000  0.000000
  1O   3pz        0.000000  0.000000  0.000000 -0.000000  0.000000  0.000000
  1O   3px       -0.003367  0.002216 -0.001344  0.002011 -0.003073 -0.052667
  1O   3py        0.000000  0.000000  0.000000 -0.000000  0.000000  0.000000
  1O   1dz2       0.000030 -0.000008 -0.000069  0.000016  0.000005 -0.000348
  1O   1dxz       0.000000 -0.000000 -0.000000 -0.000000  0.000000 -0.000000
  1O   1dyz       0.000000 -0.000000  0.000000 -0.000000  0.000000  0.000000
  1O   1dx2y2    -0.000053  0.000013  0.000119 -0.000028 -0.000008  0.000604
  1O   1dxy       0.000000 -0.000000 -0.000000 -0.000000  0.000000 -0.000000
  1O   2dz2      -0.000102  0.000018  0.000247  0.000426 -0.000484 -0.002575
  1O   2dxz      -0.000000  0.000000  0.000000  0.000000 -0.000000 -0.000000
  1O   2dyz      -0.000000  0.000000 -0.000000 -0.000000  0.000000 -0.000000
  1O   2dx2y2     0.000177 -0.000030 -0.000427 -0.000738  0.000839  0.004459
  1O   2dxy      -0.000000  0.000000  0.000000  0.000000 -0.000000 -0.000000
  1O   1f0       -0.000000  0.000000  0.000000 -0.000000 -0.000000 -0.000000
  1O   1f+1       0.000013 -0.000014 -0.000101 -0.000072  0.000094  0.000398
  1O   1f-1      -0.000000  0.000000  0.000000  0.000000 -0.000000 -0.000000
  1O   1f+2       0.000000 -0.000000 -0.000000 -0.000000  0.000000  0.000000
  1O   1f-2      -0.000000  0.000000  0.000000 -0.000000  0.000000 -0.000000
  1O   1f+3       0.000017 -0.000018 -0.000130 -0.000093  0.000122  0.000513
  1O   1f-3      -0.000000  0.000000  0.000000  0.000000 -0.000000 -0.000000
  1O   6s        -0.000701  0.000610  0.004722 -0.005593  0.007122  0.013445
  1O   4pz        0.000000  0.000000  0.000000 -0.000000 -0.000000  0.000000
  1O   4px        0.000360  0.000290 -0.001453 -0.000545 -0.000731 -0.006184
  1O   4py        0.000000  0.000000  0.000000 -0.000000 -0.000000  0.000000
  1O   3dz2      -0.000162  0.000341  0.000295 -0.000273 -0.000322 -0.001456
  1O   3dxz      -0.000000 -0.000000 -0.000000  0.000000  0.000000 -0.000000
  1O   3dyz       0.000000 -0.000000  0.000000  0.000000 -0.000000 -0.000000
  1O   3dx2y2     0.000280 -0.000591 -0.000511  0.000472  0.000557  0.002522
  1O   3dxy      -0.000000 -0.000000 -0.000000  0.000000  0.000000 -0.000000
  2O   1s         0.308935  0.307124  0.000003  0.078279  0.078481  0.011204
  2O   2s         0.452961  0.450374 -0.000057  0.183168  0.183632  0.026626
  2O   3s         0.025791  0.025115  0.000431 -0.282013 -0.282627 -0.044822
  2O   4s        -0.018418 -0.016453 -0.000779 -0.359975 -0.361302 -0.057467
  2O   5s         0.014262  0.009539  0.002442 -0.156086 -0.154866 -0.028688
  2O   1pz        0.000000 -0.000000  0.000000 -0.000000 -0.000000  0.000000
  2O   1px        0.000145  0.000165  0.000205 -0.003436 -0.003004  0.104919
  2O   1py        0.000000 -0.000000  0.000000 -0.000000 -0.000000  0.000000
  2O   2pz       -0.000000  0.000000 -0.000000 -0.000000 -0.000000  0.000000
  2O   2px       -0.000686 -0.000699 -0.000537 -0.003585 -0.003138  0.085034
  2O   2py       -0.000000  0.000000 -0.000000 -0.000000 -0.000000  0.000000
  2O   3pz        0.000000 -0.000000  0.000000 -0.000000 -0.000000  0.000000
  2O   3px        0.003380  0.002196  0.001344 -0.002012 -0.003072  0.052668
  2O   3py        0.000000 -0.000000  0.000000 -0.000000 -0.000000  0.000000
  2O   1dz2       0.000030  0.000007 -0.000069  0.000016 -0.000005 -0.000348
  2O   1dxz      -0.000000 -0.000000  0.000000  0.000000  0.000000  0.000000
  2O   1dyz      -0.000000 -0.000000  0.000000 -0.000000 -0.000000 -0.000000
  2O   1dx2y2    -0.000053 -0.000013  0.000119 -0.000028  0.000008  0.000604
  2O   1dxy      -0.000000 -0.000000  0.000000  0.000000  0.000000  0.000000
  2O   2dz2      -0.000102 -0.000017  0.000247  0.000426  0.000484 -0.002575
  2O   2dxz       0.000000  0.000000 -0.000000 -0.000000 -0.000000  0.000000
  2O   2dyz       0.000000  0.000000 -0.000000 -0.000000  0.000000 -0.000000
  2O   2dx2y2     0.000177  0.000029 -0.000427 -0.000739 -0.000839  0.004459
  2O   2dxy       0.000000  0.000000 -0.000000 -0.000000 -0.000000  0.000000
  2O   1f0       -0.000000 -0.000000  0.000000 -0.000000  0.000000 -0.000000
  2O   1f+1      -0.000014 -0.000014  0.000101  0.000072  0.000094 -0.000398
  2O   1f-1      -0.000000 -0.000000  0.000000  0.000000  0.000000 -0.000000
  2O   1f+2       0.000000  0.000000 -0.000000 -0.000000 -0.000000  0.000000
  2O   1f-2       0.000000  0.000000  0.000000  0.000000  0.000000 -0.000000
  2O   1f+3      -0.000017 -0.000018  0.000130  0.000093  0.000122 -0.000513
  2O   1f-3      -0.000000 -0.000000  0.000000  0.000000  0.000000 -0.000000
  2O   6s        -0.000704 -0.000606  0.004722 -0.005596 -0.007120  0.013445
  2O   4pz        0.000000 -0.000000  0.000000 -0.000000  0.000000  0.000000
  2O   4px       -0.000359  0.000292  0.001453  0.000544 -0.000731  0.006184
  2O   4py        0.000000 -0.000000  0.000000 -0.000000  0.000000  0.000000
  2O   3dz2      -0.000164 -0.000340  0.000295 -0.000273  0.000322 -0.001456
  2O   3dxz       0.000000 -0.000000  0.000000 -0.000000  0.000000  0.000000
  2O   3dyz       0.000000  0.000000 -0.000000 -0.000000 -0.000000  0.000000
  2O   3dx2y2     0.000283  0.000589 -0.000511  0.000472 -0.000557  0.002522
  2O   3dxy       0.000000 -0.000000  0.000000 -0.000000  0.000000  0.000000
                      6         7         8         9        10        11   
                  -0.35119  -0.32595  -0.32595  -0.32327  -0.32327  -0.29665
                   2.00000   2.00000   2.00000   2.00000   2.00000   0.00000
                  --------  --------  --------  --------  --------  --------
  0C   1s         0.000001  0.000000 -0.000000 -0.000000  0.000000  0.046907
  0C   2s         0.000001  0.000000 -0.000000 -0.000000 -0.000000  0.100144
  0C   3s        -0.000002 -0.000000  0.000000 -0.000000  0.000000 -0.186550
  0C   4s        -0.000003 -0.000000  0.000000 -0.000000 -0.000000 -0.211698
  0C   5s        -0.000002 -0.000000 -0.000000  0.000000  0.000000 -0.152475
  0C   1pz       -0.000000 -0.029728 -0.048292  0.000001  0.000001 -0.000000
  0C   1px       -0.153114  0.000000  0.000000  0.000000 -0.000000 -0.000002
  0C   1py        0.000000 -0.048292  0.029728  0.000001 -0.000001 -0.000000
  0C   2pz       -0.000000 -0.027056 -0.043951  0.000001  0.000001 -0.000000
  0C   2px       -0.133447 -0.000000  0.000000  0.000000  0.000000 -0.000002
  0C   2py       -0.000000 -0.043951  0.027056  0.000001 -0.000001 -0.000000
  0C   3pz        0.000000 -0.014895 -0.024196  0.000000  0.000001 -0.000000
  0C   3px       -0.013114 -0.000000  0.000000  0.000000 -0.000000 -0.000000
  0C   3py        0.000000 -0.024196  0.014895  0.000001 -0.000000 -0.000000
  0C   1dz2      -0.000000 -0.000000  0.000000  0.000000  0.000000 -0.003154
  0C   1dxz       0.000000  0.000000  0.000000  0.001167  0.001739 -0.000000
  0C   1dyz       0.000000  0.000000  0.000000 -0.000000  0.000000 -0.000000
  0C   1dx2y2     0.000000 -0.000000  0.000000 -0.000000 -0.000000  0.005463
  0C   1dxy       0.000000  0.000000 -0.000000  0.001739 -0.001167 -0.000000
  0C   2dz2      -0.000000  0.000000  0.000000 -0.000000 -0.000000 -0.010119
  0C   2dxz       0.000000  0.000000  0.000000  0.005652  0.008422  0.000000
  0C   2dyz      -0.000000  0.000000  0.000000 -0.000000 -0.000000  0.000000
  0C   2dx2y2     0.000000 -0.000000  0.000000  0.000000  0.000000  0.017526
  0C   2dxy       0.000000  0.000000 -0.000000  0.008422 -0.005652  0.000000
  0C   1f0        0.000000  0.000780  0.001268 -0.000000 -0.000000  0.000000
  0C   1f+1       0.002097  0.000000 -0.000000 -0.000000 -0.000000  0.000000
  0C   1f-1      -0.000000  0.000524 -0.000323 -0.000000  0.000000  0.000000
  0C   1f+2      -0.000000 -0.001013 -0.001645  0.000000  0.000000 -0.000000
  0C   1f-2       0.000000  0.000000 -0.000000 -0.000000 -0.000000 -0.000000
  0C   1f+3       0.002708  0.000000 -0.000000 -0.000000  0.000000  0.000000
  0C   1f-3       0.000000  0.002009 -0.001237 -0.000000  0.000000  0.000000
  0C   6s        -0.000000  0.000000 -0.000000  0.000000 -0.000000 -0.082452
  0C   3dz2      -0.000000 -0.000000  0.000000 -0.000000  0.000000  0.011708
  0C   3dxz      -0.000000 -0.000000 -0.000000 -0.000770 -0.001148 -0.000000
  0C   3dyz       0.000000  0.000000  0.000000  0.000000  0.000000 -0.000000
  0C   3dx2y2     0.000000  0.000000 -0.000000  0.000000 -0.000000 -0.020279
  0C   3dxy      -0.000000 -0.000000  0.000000 -0.001148  0.000770  0.000000
  1O   1s        -0.004562  0.000000  0.000000  0.000000 -0.000000 -0.004245
  1O   2s        -0.010894  0.000000 -0.000000  0.000000  0.000000 -0.010163
  1O   3s         0.018850 -0.000000  0.000000 -0.000000 -0.000000  0.017676
  1O   4s         0.024880 -0.000000 -0.000000  0.000000  0.000000  0.023781
  1O   5s         0.013632 -0.000000  0.000000 -0.000000 -0.000000  0.022895
  1O   1pz       -0.000000 -0.186478 -0.302926  0.201730  0.300609  0.000000
  1O   1px        0.328569 -0.000000  0.000000  0.000000 -0.000000 -0.354812
  1O   1py       -0.000000 -0.302926  0.186478  0.300609 -0.201730  0.000000
  1O   2pz       -0.000000 -0.148423 -0.241107  0.160385  0.239000  0.000000
  1O   2px        0.261103 -0.000000  0.000000  0.000000 -0.000000 -0.280567
  1O   2py       -0.000000 -0.241107  0.148423  0.239000 -0.160385  0.000000
  1O   3pz       -0.000000 -0.099630 -0.161846  0.108321  0.161415  0.000000
  1O   3px        0.180396 -0.000000  0.000000  0.000000 -0.000000 -0.200967
  1O   3py       -0.000000 -0.161846  0.099630  0.161415 -0.108321  0.000000
  1O   1dz2       0.000217  0.000000 -0.000000 -0.000000  0.000000  0.000127
  1O   1dxz       0.000000  0.000038  0.000062 -0.000043 -0.000064  0.000000
  1O   1dyz      -0.000000  0.000000  0.000000 -0.000000 -0.000000  0.000000
  1O   1dx2y2    -0.000376  0.000000 -0.000000 -0.000000  0.000000 -0.000220
  1O   1dxy       0.000000  0.000062 -0.000038 -0.000064  0.000043  0.000000
  1O   2dz2       0.001785 -0.000000 -0.000000  0.000000 -0.000000  0.000996
  1O   2dxz       0.000000  0.000847  0.001376 -0.000483 -0.000720  0.000000
  1O   2dyz       0.000000 -0.000000 -0.000000  0.000000  0.000000 -0.000000
  1O   2dx2y2    -0.003092  0.000000 -0.000000 -0.000000  0.000000 -0.001725
  1O   2dxy       0.000000  0.001376 -0.000847 -0.000720  0.000483  0.000000
  1O   1f0        0.000000  0.000123  0.000199 -0.000099 -0.000148  0.000000
  1O   1f+1      -0.000311  0.000000  0.000000 -0.000000 -0.000000 -0.000099
  1O   1f-1       0.000000  0.000015 -0.000009  0.000006 -0.000004 -0.000000
  1O   1f+2      -0.000000 -0.000106 -0.000173  0.000072  0.000107 -0.000000
  1O   1f-2       0.000000  0.000000  0.000000 -0.000000 -0.000000  0.000000
  1O   1f+3      -0.000401  0.000000 -0.000000 -0.000000  0.000000 -0.000128
  1O   1f-3       0.000000  0.000263 -0.000162 -0.000182  0.000122  0.000000
  1O   6s        -0.017392 -0.000000  0.000000 -0.000000  0.000000  0.032997
  1O   4pz       -0.000000 -0.010978 -0.017833  0.013237  0.019725  0.000000
  1O   4px        0.024833 -0.000000  0.000000  0.000000 -0.000000 -0.034260
  1O   4py       -0.000000 -0.017833  0.010978  0.019725 -0.013237  0.000000
  1O   3dz2       0.003697 -0.000000 -0.000000  0.000000  0.000000  0.000526
  1O   3dxz       0.000000  0.000831  0.001349 -0.001306 -0.001946 -0.000000
  1O   3dyz      -0.000000 -0.000000 -0.000000  0.000000  0.000000  0.000000
  1O   3dx2y2    -0.006404  0.000000 -0.000000 -0.000000  0.000000 -0.000910
  1O   3dxy       0.000000  0.001349 -0.000831 -0.001946  0.001306 -0.000000
  2O   1s         0.004562  0.000000  0.000000 -0.000000  0.000000 -0.004245
  2O   2s         0.010894  0.000000 -0.000000 -0.000000  0.000000 -0.010163
  2O   3s        -0.018850 -0.000000  0.000000  0.000000  0.000000  0.017676
  2O   4s        -0.024880  0.000000 -0.000000 -0.000000 -0.000000  0.023781
  2O   5s        -0.013632 -0.000000  0.000000  0.000000  0.000000  0.022895
  2O   1pz        0.000000 -0.186491 -0.302949 -0.201715 -0.300588  0.000000
  2O   1px        0.328569  0.000000 -0.000000  0.000000 -0.000000  0.354809
  2O   1py        0.000000 -0.302949  0.186491 -0.300588  0.201715  0.000000
  2O   2pz        0.000000 -0.148433 -0.241125 -0.160374 -0.238983  0.000000
  2O   2px        0.261103  0.000000 -0.000000  0.000000 -0.000000  0.280565
  2O   2py        0.000000 -0.241125  0.148433 -0.238983  0.160374  0.000000
  2O   3pz        0.000000 -0.099637 -0.161857 -0.108313 -0.161404  0.000000
  2O   3px        0.180396  0.000000 -0.000000  0.000000 -0.000000  0.200965
  2O   3py        0.000000 -0.161857  0.099637 -0.161404  0.108313  0.000000
  2O   1dz2      -0.000217  0.000000 -0.000000  0.000000 -0.000000  0.000127
  2O   1dxz       0.000000 -0.000038 -0.000062 -0.000043 -0.000064 -0.000000
  2O   1dyz      -0.000000  0.000000  0.000000  0.000000  0.000000  0.000000
  2O   1dx2y2     0.000376  0.000000 -0.000000  0.000000 -0.000000 -0.000220
  2O   1dxy       0.000000 -0.000062  0.000038 -0.000064  0.000043 -0.000000
  2O   2dz2      -0.001785 -0.000000 -0.000000 -0.000000  0.000000  0.000996
  2O   2dxz       0.000000 -0.000847 -0.001376 -0.000483 -0.000720 -0.000000
  2O   2dyz      -0.000000 -0.000000 -0.000000 -0.000000 -0.000000 -0.000000
  2O   2dx2y2     0.003092  0.000000 -0.000000  0.000000 -0.000000 -0.001725
  2O   2dxy       0.000000 -0.001376  0.000847 -0.000720  0.000483 -0.000000
  2O   1f0       -0.000000  0.000123  0.000199  0.000099  0.000148  0.000000
  2O   1f+1      -0.000311 -0.000000 -0.000000 -0.000000 -0.000000  0.000099
  2O   1f-1      -0.000000  0.000015 -0.000009 -0.000006  0.000004 -0.000000
  2O   1f+2       0.000000 -0.000106 -0.000173 -0.000072 -0.000107 -0.000000
  2O   1f-2       0.000000 -0.000000 -0.000000 -0.000000 -0.000000 -0.000000
  2O   1f+3      -0.000401 -0.000000  0.000000 -0.000000  0.000000  0.000128
  2O   1f-3      -0.000000  0.000263 -0.000162  0.000182 -0.000122  0.000000
  2O   6s         0.017391 -0.000000  0.000000 -0.000000  0.000000  0.032997
  2O   4pz        0.000000 -0.010979 -0.017835 -0.013236 -0.019724  0.000000
  2O   4px        0.024833  0.000000  0.000000  0.000000 -0.000000  0.034259
  2O   4py        0.000000 -0.017835  0.010979 -0.019724  0.013236  0.000000
  2O   3dz2      -0.003697  0.000000 -0.000000  0.000000 -0.000000  0.000526
  2O   3dxz       0.000000 -0.000831 -0.001349 -0.001306 -0.001946  0.000000
  2O   3dyz      -0.000000 -0.000000 -0.000000 -0.000000 -0.000000  0.000000
  2O   3dx2y2     0.006404  0.000000  0.000000  0.000000 -0.000000 -0.000910
  2O   3dxy       0.000000 -0.001349  0.000831 -0.001946  0.001306  0.000000
                     12        13        14        15        16        17   
                  -0.16234  -0.16234  -0.09760   0.01153   0.05027   0.06890
                   0.00000   0.00000   0.00000   0.00000   0.00000   0.00000
                  --------  --------  --------  --------  --------  --------
  0C   1s         0.000000 -0.000000  0.000000 -0.024562 -0.000000 -0.000000
  0C   2s         0.000000 -0.000000  0.000001 -0.055519 -0.000000 -0.000000
  0C   3s        -0.000000  0.000000 -0.000002  0.141461  0.000001  0.000000
  0C   4s        -0.000000  0.000000 -0.000002  0.109385 -0.000001 -0.000000
  0C   5s        -0.000000  0.000000 -0.000001  0.780685 -0.000002  0.000000
  0C   1pz       -0.367608 -0.278917 -0.000000  0.000000  0.000000  0.098710
  0C   1px        0.000000 -0.000000  0.486029  0.000000 -0.110888  0.000000
  0C   1py        0.278917 -0.367608 -0.000000  0.000000 -0.000000  0.102672
  0C   2pz       -0.316656 -0.240258 -0.000000 -0.000000  0.000000  0.081826
  0C   2px        0.000000 -0.000000  0.421016  0.000000 -0.122574 -0.000000
  0C   2py        0.240258 -0.316656 -0.000000 -0.000000  0.000000  0.085110
  0C   3pz       -0.260546 -0.197685  0.000000  0.000000  0.000000  0.157253
  0C   3px       -0.000000 -0.000000  0.327350  0.000009  0.291805  0.000000
  0C   3py        0.197685 -0.260546  0.000000  0.000000 -0.000000  0.163564
  0C   1dz2      -0.000000  0.000000 -0.000000 -0.000583  0.000000  0.000000
  0C   1dxz      -0.000000 -0.000000  0.000000 -0.000000  0.000000 -0.000000
  0C   1dyz      -0.000000 -0.000000 -0.000000  0.000000  0.000000 -0.000000
  0C   1dx2y2     0.000000 -0.000000  0.000000  0.001009 -0.000000 -0.000000
  0C   1dxy       0.000000 -0.000000  0.000000 -0.000000  0.000000 -0.000000
  0C   2dz2      -0.000000  0.000000 -0.000000 -0.000445  0.000000 -0.000000
  0C   2dxz      -0.000000 -0.000000  0.000000  0.000000 -0.000000  0.000000
  0C   2dyz       0.000000  0.000000  0.000000 -0.000000 -0.000000  0.000000
  0C   2dx2y2     0.000000 -0.000000  0.000000  0.000771 -0.000000  0.000000
  0C   2dxy       0.000000 -0.000000  0.000000  0.000000 -0.000000  0.000000
  0C   1f0        0.000015  0.000012  0.000000 -0.000000 -0.000000 -0.000297
  0C   1f+1       0.000000  0.000000  0.001557 -0.000000 -0.002128  0.000000
  0C   1f-1      -0.000043  0.000056  0.000000 -0.000000 -0.000000 -0.000144
  0C   1f+2      -0.000083 -0.000063 -0.000000  0.000000 -0.000000  0.000405
  0C   1f-2      -0.000000 -0.000000 -0.000000  0.000000 -0.000000  0.000000
  0C   1f+3       0.000000  0.000000  0.002010 -0.000000 -0.002747  0.000000
  0C   1f-3      -0.000048  0.000063  0.000000 -0.000000  0.000000 -0.000503
  0C   6s         0.000000 -0.000000 -0.000002 -4.352373 -0.000002  0.000000
  0C   3dz2      -0.000000  0.000000 -0.000000  0.309850 -0.000001 -0.000000
  0C   3dxz      -0.000000 -0.000000  0.000000  0.000000  0.000000 -0.000001
  0C   3dyz      -0.000000 -0.000000  0.000000  0.000000  0.000000 -0.000000
  0C   3dx2y2     0.000000  0.000000  0.000000 -0.536676  0.000001  0.000000
  0C   3dxy       0.000000 -0.000000  0.000000  0.000000  0.000000 -0.000002
  1O   1s        -0.000000  0.000000  0.015954 -0.012817  0.013960  0.000000
  1O   2s        -0.000000  0.000000  0.038573 -0.031197  0.035416  0.000000
  1O   3s         0.000000 -0.000000 -0.071526  0.060390 -0.087811 -0.000000
  1O   4s         0.000000 -0.000000 -0.086274  0.065161  0.017711  0.000000
  1O   5s         0.000000 -0.000000 -0.132979  0.164259 -0.435778 -0.000000
  1O   1pz        0.067615  0.051302 -0.000000 -0.000000  0.000000  0.064160
  1O   1px       -0.000000  0.000000  0.179752  0.033818 -0.093136  0.000000
  1O   1py       -0.051302  0.067615 -0.000000 -0.000000  0.000000  0.066735
  1O   2pz        0.051828  0.039323 -0.000000 -0.000000  0.000000  0.031767
  1O   2px       -0.000000  0.000000  0.142840  0.057025 -0.068895 -0.000000
  1O   2py       -0.039323  0.051828 -0.000000 -0.000000  0.000000  0.033042
  1O   3pz        0.044029  0.033406 -0.000000  0.000000 -0.000000  0.120849
  1O   3px       -0.000000  0.000000  0.115693 -0.184625 -0.056938  0.000000
  1O   3py       -0.033406  0.044029 -0.000000  0.000000 -0.000000  0.125699
  1O   1dz2      -0.000000 -0.000000 -0.000880 -0.000396  0.000707 -0.000000
  1O   1dxz       0.000584  0.000443 -0.000000 -0.000000  0.000000  0.000042
  1O   1dyz      -0.000000 -0.000000 -0.000000  0.000000 -0.000000  0.000000
  1O   1dx2y2    -0.000000  0.000000  0.001524  0.000686 -0.001224  0.000000
  1O   1dxy      -0.000443  0.000584 -0.000000 -0.000000  0.000000  0.000044
  1O   2dz2      -0.000000 -0.000000 -0.005509 -0.000836 -0.001030  0.000000
  1O   2dxz       0.004979  0.003778 -0.000000  0.000000 -0.000000 -0.003599
  1O   2dyz      -0.000000 -0.000000  0.000000 -0.000000  0.000000  0.000000
  1O   2dx2y2    -0.000000  0.000000  0.009542  0.001448  0.001783 -0.000000
  1O   2dxy      -0.003778  0.004979 -0.000000  0.000000 -0.000000 -0.003743
  1O   1f0        0.000351  0.000267 -0.000000 -0.000000  0.000000 -0.000170
  1O   1f+1       0.000000  0.000000  0.000542  0.000327 -0.000195 -0.000000
  1O   1f-1      -0.000120  0.000158 -0.000000 -0.000000  0.000000 -0.000054
  1O   1f+2      -0.000472 -0.000358  0.000000  0.000000 -0.000000  0.000197
  1O   1f-2       0.000000  0.000000 -0.000000  0.000000  0.000000 -0.000000
  1O   1f+3      -0.000000  0.000000  0.000699  0.000423 -0.000252 -0.000000
  1O   1f-3      -0.000430  0.000567 -0.000000 -0.000000  0.000000 -0.000265
  1O   6s        -0.000000  0.000000  0.080857  1.338532  0.492368 -0.000000
  1O   4pz       -0.011775 -0.008934 -0.000000  0.000000 -0.000000 -0.562153
  1O   4px        0.000000 -0.000000  0.045022 -0.900639  0.740815 -0.000000
  1O   4py        0.008934 -0.011775 -0.000000  0.000000 -0.000000 -0.584714
  1O   3dz2       0.000000 -0.000000 -0.007612 -0.041090  0.043276  0.000000
  1O   3dxz       0.007366  0.005589 -0.000000 -0.000000  0.000000  0.005837
  1O   3dyz      -0.000000 -0.000000 -0.000000  0.000000 -0.000000  0.000000
  1O   3dx2y2    -0.000000  0.000000  0.013184  0.071169 -0.074956 -0.000000
  1O   3dxy      -0.005589  0.007366 -0.000000 -0.000000  0.000000  0.006071
  2O   1s        -0.000000  0.000000 -0.015954 -0.012817 -0.013960  0.000000
  2O   2s        -0.000000  0.000000 -0.038574 -0.031197 -0.035415  0.000000
  2O   3s         0.000000 -0.000000  0.071527  0.060390  0.087810 -0.000000
  2O   4s         0.000000 -0.000000  0.086276  0.065160 -0.017711  0.000000
  2O   5s         0.000000 -0.000000  0.132981  0.164263  0.435775 -0.000000
  2O   1pz        0.067616  0.051303  0.000000 -0.000000 -0.000000  0.064159
  2O   1px        0.000000 -0.000000  0.179755 -0.033819 -0.093137 -0.000000
  2O   1py       -0.051303  0.067616  0.000000 -0.000000 -0.000000  0.066734
  2O   2pz        0.051829  0.039324  0.000000 -0.000000 -0.000000  0.031767
  2O   2px        0.000000 -0.000000  0.142843 -0.057026 -0.068896  0.000000
  2O   2py       -0.039324  0.051829  0.000000 -0.000000 -0.000000  0.033042
  2O   3pz        0.044030  0.033407  0.000000  0.000000  0.000000  0.120848
  2O   3px        0.000000 -0.000000  0.115696  0.184628 -0.056938 -0.000000
  2O   3py       -0.033407  0.044030  0.000000  0.000000  0.000000  0.125699
  2O   1dz2      -0.000000 -0.000000  0.000880 -0.000396 -0.000707 -0.000000
  2O   1dxz      -0.000584 -0.000443 -0.000000  0.000000  0.000000 -0.000042
  2O   1dyz      -0.000000 -0.000000  0.000000 -0.000000  0.000000  0.000000
  2O   1dx2y2    -0.000000  0.000000 -0.001524  0.000686  0.001224  0.000000
  2O   1dxy       0.000443 -0.000584 -0.000000  0.000000  0.000000 -0.000044
  2O   2dz2      -0.000000 -0.000000  0.005509 -0.000836  0.001030  0.000000
  2O   2dxz      -0.004979 -0.003778 -0.000000 -0.000000 -0.000000  0.003599
  2O   2dyz      -0.000000 -0.000000 -0.000000  0.000000 -0.000000  0.000000
  2O   2dx2y2    -0.000000  0.000000 -0.009542  0.001448 -0.001783 -0.000000
  2O   2dxy       0.003778 -0.004979 -0.000000 -0.000000 -0.000000  0.003743
  2O   1f0        0.000351  0.000267  0.000000 -0.000000 -0.000000 -0.000170
  2O   1f+1      -0.000000 -0.000000  0.000542 -0.000327 -0.000195  0.000000
  2O   1f-1      -0.000120  0.000158  0.000000 -0.000000 -0.000000 -0.000054
  2O   1f+2      -0.000472 -0.000358 -0.000000  0.000000  0.000000  0.000197
  2O   1f-2      -0.000000 -0.000000 -0.000000 -0.000000  0.000000  0.000000
  2O   1f+3       0.000000 -0.000000  0.000699 -0.000423 -0.000252  0.000000
  2O   1f-3      -0.000430  0.000567  0.000000 -0.000000 -0.000000 -0.000265
  2O   6s        -0.000000  0.000000 -0.080856  1.338552 -0.492361 -0.000000
  2O   4pz       -0.011775 -0.008934  0.000000  0.000000  0.000000 -0.562156
  2O   4px       -0.000000  0.000000  0.045024  0.900642  0.740816  0.000000
  2O   4py        0.008934 -0.011775  0.000000  0.000000  0.000000 -0.584717
  2O   3dz2       0.000000 -0.000000  0.007612 -0.041089 -0.043276  0.000000
  2O   3dxz      -0.007366 -0.005589 -0.000000  0.000000  0.000000 -0.005837
  2O   3dyz      -0.000000 -0.000000  0.000000 -0.000000  0.000000  0.000000
  2O   3dx2y2    -0.000000  0.000000 -0.013184  0.071169  0.074957 -0.000000
  2O   3dxy       0.005589 -0.007366 -0.000000  0.000000  0.000000 -0.006072
                     18        19        20        21        22        23   
                   0.06890   0.07167   0.08564   0.08564   0.13447   0.18271
                   0.00000   0.00000   0.00000   0.00000   0.00000   0.00000
                  --------  --------  --------  --------  --------  --------
  0C   1s         0.000000  0.021249  0.000000  0.000000 -0.000000  0.000000
  0C   2s         0.000000  0.049923  0.000000  0.000000 -0.000000  0.000000
  0C   3s        -0.000000 -0.162644  0.000000 -0.000000 -0.000000 -0.000000
  0C   4s         0.000000  0.290007  0.000000 -0.000000  0.000002  0.000000
  0C   5s        -0.000000 -2.014409 -0.000000  0.000000  0.000017 -0.000000
  0C   1pz        0.102672  0.000000 -0.000000 -0.000000  0.000000 -0.000000
  0C   1px       -0.000000 -0.000001  0.000000 -0.000000 -0.123750  0.000000
  0C   1py       -0.098710  0.000000 -0.000000  0.000000  0.000000  0.000000
  0C   2pz        0.085110 -0.000000  0.000000  0.000000 -0.000000 -0.000000
  0C   2px       -0.000000  0.000001  0.000000 -0.000000 -0.047677 -0.000000
  0C   2py       -0.081826 -0.000000  0.000000 -0.000000 -0.000000  0.000000
  0C   3pz        0.163564  0.000000 -0.000003 -0.000002  0.000000  0.000000
  0C   3px       -0.000000  0.000006  0.000000 -0.000000 -1.672925  0.000000
  0C   3py       -0.157253  0.000000 -0.000002  0.000003  0.000000 -0.000000
  0C   1dz2      -0.000000 -0.001150 -0.000000  0.000000 -0.000000  0.024461
  0C   1dxz      -0.000000 -0.000000  0.000947  0.000814  0.000000  0.000000
  0C   1dyz      -0.000000 -0.000000 -0.000000 -0.000000 -0.000000  0.000000
  0C   1dx2y2     0.000000  0.001992  0.000000 -0.000000  0.000000  0.014122
  0C   1dxy       0.000000 -0.000000  0.000814 -0.000947  0.000000  0.000000
  0C   2dz2       0.000000  0.033282  0.000000 -0.000000 -0.000000 -0.021408
  0C   2dxz       0.000000  0.000000 -0.024747 -0.021275  0.000000  0.000000
  0C   2dyz       0.000000 -0.000000  0.000000 -0.000000  0.000000 -0.000000
  0C   2dx2y2     0.000000 -0.057646 -0.000000  0.000000  0.000001 -0.012360
  0C   2dxy      -0.000000  0.000000 -0.021275  0.024747  0.000000  0.000000
  0C   1f0       -0.000309 -0.000000  0.000000  0.000000  0.000000 -0.000000
  0C   1f+1       0.000000 -0.000000  0.000000 -0.000000  0.005993  0.000000
  0C   1f-1       0.000138 -0.000000  0.000000 -0.000000  0.000000 -0.000000
  0C   1f+2       0.000422  0.000000 -0.000000 -0.000000  0.000000 -0.000000
  0C   1f-2       0.000000 -0.000000 -0.000000 -0.000000  0.000000 -0.000000
  0C   1f+3       0.000000 -0.000000 -0.000000  0.000000  0.007737 -0.000000
  0C   1f-3       0.000483 -0.000000  0.000000 -0.000000 -0.000000 -0.000000
  0C   6s        -0.000000 -0.403446 -0.000000 -0.000000 -0.000015 -0.000000
  0C   3dz2       0.000000  0.197578  0.000000  0.000000  0.000003  0.802568
  0C   3dxz      -0.000002  0.000000  0.259028  0.222692  0.000000  0.000000
  0C   3dyz      -0.000000  0.000000 -0.000000  0.000000 -0.000000  0.000000
  0C   3dx2y2    -0.000000 -0.342214 -0.000000 -0.000000 -0.000006  0.463363
  0C   3dxy       0.000001  0.000000  0.222692 -0.259028  0.000000  0.000000
  1O   1s        -0.000000 -0.003432 -0.000000  0.000000  0.012155  0.000000
  1O   2s        -0.000000 -0.008475 -0.000000  0.000000  0.031154  0.000000
  1O   3s         0.000000  0.018654  0.000000 -0.000000 -0.081839 -0.000000
  1O   4s        -0.000000  0.003740 -0.000000  0.000000  0.040732  0.000000
  1O   5s         0.000000  0.040488  0.000000 -0.000000 -0.665132 -0.000000
  1O   1pz        0.066735  0.000000  0.080017  0.068792  0.000000  0.000000
  1O   1px       -0.000000  0.061408  0.000000 -0.000000  0.014088 -0.000000
  1O   1py       -0.064160  0.000000  0.068792 -0.080017  0.000000 -0.000000
  1O   2pz        0.033042 -0.000000  0.058036  0.049895  0.000000  0.000000
  1O   2px        0.000000  0.067262  0.000000 -0.000000  0.053034  0.000000
  1O   2py       -0.031767 -0.000000  0.049895 -0.058036  0.000000 -0.000000
  1O   3pz        0.125699  0.000000  0.074296  0.063873 -0.000000  0.000000
  1O   3px       -0.000000 -0.102719 -0.000000  0.000000 -0.220253 -0.000000
  1O   3py       -0.120849  0.000000  0.063873 -0.074296 -0.000000 -0.000000
  1O   1dz2       0.000000  0.000142 -0.000000 -0.000000  0.000249  0.002671
  1O   1dxz       0.000044  0.000000  0.000662  0.000569  0.000000  0.000000
  1O   1dyz       0.000000 -0.000000 -0.000000 -0.000000 -0.000000  0.000000
  1O   1dx2y2     0.000000 -0.000246  0.000000 -0.000000 -0.000431  0.001542
  1O   1dxy      -0.000042  0.000000  0.000569 -0.000662  0.000000 -0.000000
  1O   2dz2      -0.000000  0.004972 -0.000000  0.000000  0.010301  0.006042
  1O   2dxz      -0.003743  0.000000 -0.006449 -0.005545  0.000000  0.000000
  1O   2dyz       0.000000  0.000000  0.000000  0.000000  0.000000  0.000000
  1O   2dx2y2     0.000000 -0.008611  0.000000  0.000000 -0.017843  0.003488
  1O   2dxy       0.003599  0.000000 -0.005545  0.006449  0.000000 -0.000000
  1O   1f0       -0.000176 -0.000000 -0.000030 -0.000026  0.000000  0.000000
  1O   1f+1      -0.000000 -0.000028  0.000000 -0.000000 -0.000275 -0.000590
  1O   1f-1       0.000052  0.000000  0.000009 -0.000010  0.000000  0.000000
  1O   1f+2       0.000205  0.000000  0.000010  0.000008 -0.000000 -0.000000
  1O   1f-2      -0.000000  0.000000  0.000000  0.000000 -0.000000 -0.000000
  1O   1f+3       0.000000 -0.000036  0.000000  0.000000 -0.000356  0.000457
  1O   1f-3       0.000255 -0.000000 -0.000025  0.000030  0.000000 -0.000000
  1O   6s         0.000000  0.824014 -0.000000  0.000000  2.329370  0.000000
  1O   4pz       -0.584714  0.000000 -0.768570 -0.660755 -0.000000  0.000000
  1O   4px        0.000000 -1.154362 -0.000000  0.000000 -1.513085 -0.000000
  1O   4py        0.562153  0.000000 -0.660755  0.768570 -0.000000 -0.000000
  1O   3dz2       0.000000 -0.055193 -0.000000 -0.000000 -0.067144  0.091125
  1O   3dxz       0.006071 -0.000000  0.063055  0.054209  0.000000  0.000000
  1O   3dyz       0.000000 -0.000000 -0.000000 -0.000000 -0.000000  0.000000
  1O   3dx2y2     0.000000  0.095596  0.000000 -0.000000  0.116297  0.052611
  1O   3dxy      -0.005837 -0.000000  0.054209 -0.063055  0.000000 -0.000000
  2O   1s        -0.000000 -0.003432  0.000000 -0.000000 -0.012155  0.000000
  2O   2s        -0.000000 -0.008475  0.000000 -0.000000 -0.031154  0.000000
  2O   3s         0.000000  0.018655 -0.000000  0.000000  0.081838 -0.000000
  2O   4s        -0.000000  0.003739  0.000000 -0.000000 -0.040731 -0.000000
  2O   5s         0.000000  0.040492 -0.000000  0.000000  0.665125 -0.000000
  2O   1pz        0.066734  0.000000 -0.080016 -0.068792 -0.000000  0.000000
  2O   1px        0.000000 -0.061408  0.000000 -0.000000  0.014087  0.000000
  2O   1py       -0.064159  0.000000 -0.068792  0.080016 -0.000000 -0.000000
  2O   2pz        0.033042 -0.000000 -0.058037 -0.049895 -0.000000  0.000000
  2O   2px       -0.000000 -0.067262  0.000000 -0.000000  0.053033 -0.000000
  2O   2py       -0.031767 -0.000000 -0.049895  0.058037 -0.000000 -0.000000
  2O   3pz        0.125699  0.000000 -0.074294 -0.063872  0.000000  0.000000
  2O   3px        0.000000  0.102724 -0.000000  0.000000 -0.220257  0.000000
  2O   3py       -0.120848  0.000000 -0.063872  0.074294  0.000000 -0.000000
  2O   1dz2       0.000000  0.000142  0.000000  0.000000 -0.000249  0.002671
  2O   1dxz      -0.000044 -0.000000  0.000662  0.000569  0.000000 -0.000000
  2O   1dyz       0.000000  0.000000  0.000000  0.000000 -0.000000  0.000000
  2O   1dx2y2     0.000000 -0.000246 -0.000000  0.000000  0.000431  0.001542
  2O   1dxy       0.000042 -0.000000  0.000569 -0.000662  0.000000  0.000000
  2O   2dz2      -0.000000  0.004972  0.000000 -0.000000 -0.010302  0.006042
  2O   2dxz       0.003743 -0.000000 -0.006449 -0.005545  0.000000 -0.000000
  2O   2dyz       0.000000 -0.000000 -0.000000 -0.000000  0.000000  0.000000
  2O   2dx2y2     0.000000 -0.008611 -0.000000 -0.000000  0.017843  0.003488
  2O   2dxy      -0.003599 -0.000000 -0.005545  0.006449  0.000000  0.000000
  2O   1f0       -0.000176 -0.000000  0.000030  0.000026 -0.000000  0.000000
  2O   1f+1       0.000000  0.000028  0.000000 -0.000000 -0.000275  0.000590
  2O   1f-1       0.000052  0.000000 -0.000009  0.000010 -0.000000  0.000000
  2O   1f+2       0.000205 -0.000000 -0.000010 -0.000008  0.000000 -0.000000
  2O   1f-2       0.000000 -0.000000  0.000000  0.000000 -0.000000  0.000000
  2O   1f+3      -0.000000  0.000036  0.000000  0.000000 -0.000356 -0.000457
  2O   1f-3       0.000255 -0.000000  0.000025 -0.000030 -0.000000 -0.000000
  2O   6s         0.000000  0.824031  0.000000 -0.000000 -2.329362  0.000000
  2O   4pz       -0.584717  0.000000  0.768570  0.660755  0.000000  0.000000
  2O   4px       -0.000000  1.154370 -0.000000  0.000000 -1.513080  0.000000
  2O   4py        0.562156  0.000000  0.660755 -0.768570  0.000000 -0.000000
  2O   3dz2       0.000000 -0.055193  0.000000  0.000000  0.067144  0.091125
  2O   3dxz      -0.006072  0.000000  0.063056  0.054210  0.000000 -0.000000
  2O   3dyz       0.000000  0.000000  0.000000  0.000000  0.000000  0.000000
  2O   3dx2y2     0.000000  0.095597 -0.000000  0.000000 -0.116298  0.052611
  2O   3dxy       0.005837  0.000000  0.054210 -0.063056  0.000000  0.000000
                     24        25        26        27        28        29   
                   0.18276   0.18954   0.26981   0.26981   0.27854   0.27854
                   0.00000   0.00000   0.00000   0.00000   0.00000   0.00000
                  --------  --------  --------  --------  --------  --------
  0C   1s        -0.000000 -0.010844 -0.000000  0.000000 -0.000000  0.000000
  0C   2s        -0.000000 -0.024276 -0.000000  0.000000 -0.000000  0.000000
  0C   3s         0.000000  0.070528 -0.000000  0.000000  0.000000 -0.000000
  0C   4s        -0.000000 -0.293420  0.000000  0.000000  0.000000 -0.000000
  0C   5s         0.000000  0.446376 -0.000000 -0.000000 -0.000000  0.000000
  0C   1pz        0.000000 -0.000000 -0.000010 -0.000010  0.214787  0.220924
  0C   1px        0.000000 -0.000000  0.000000 -0.000000 -0.000000  0.000000
  0C   1py        0.000000 -0.000000  0.000010 -0.000010  0.220924 -0.214787
  0C   2pz        0.000000 -0.000000 -0.000023 -0.000024  0.523298  0.538251
  0C   2px       -0.000000 -0.000001  0.000000 -0.000000 -0.000000 -0.000000
  0C   2py        0.000000 -0.000000  0.000024 -0.000023  0.538251 -0.523298
  0C   3pz       -0.000000 -0.000000  0.000043  0.000043 -1.035073 -1.064649
  0C   3px        0.000000 -0.000030 -0.000000  0.000000  0.000000 -0.000000
  0C   3py       -0.000000 -0.000000 -0.000043  0.000043 -1.064649  1.035073
  0C   1dz2       0.000000  0.002486 -0.000000 -0.000000  0.000000  0.000000
  0C   1dxz       0.000000  0.000000  0.024284  0.024309  0.000001  0.000001
  0C   1dyz      -0.028213  0.000000  0.000000 -0.000000  0.000000  0.000000
  0C   1dx2y2     0.000000 -0.004306 -0.000000  0.000000 -0.000000  0.000000
  0C   1dxy       0.000000  0.000000 -0.024309  0.024284  0.000001 -0.000001
  0C   2dz2      -0.000000 -0.014512 -0.000000  0.000000 -0.000000  0.000000
  0C   2dxz       0.000000 -0.000000 -0.009191 -0.009200 -0.000000 -0.000000
  0C   2dyz       0.024643  0.000000  0.000000  0.000000  0.000000  0.000000
  0C   2dx2y2    -0.000000  0.025135  0.000000 -0.000000  0.000000 -0.000000
  0C   2dxy      -0.000000 -0.000000  0.009200 -0.009191 -0.000000  0.000000
  0C   1f0       -0.000000  0.000000  0.000000  0.000000 -0.001059 -0.001090
  0C   1f+1       0.000000  0.000000  0.000000 -0.000000 -0.000000  0.000000
  0C   1f-1      -0.000000  0.000000 -0.000000  0.000000 -0.000512  0.000498
  0C   1f+2       0.000000 -0.000000 -0.000000 -0.000000  0.001450  0.001492
  0C   1f-2       0.000000 -0.000000  0.000000  0.000000 -0.000000 -0.000000
  0C   1f+3       0.000000  0.000000 -0.000000  0.000000  0.000000  0.000000
  0C   1f-3      -0.000000  0.000000 -0.000000  0.000000 -0.001775  0.001726
  0C   6s         0.000000  9.322384 -0.000000 -0.000000  0.000000 -0.000000
  0C   3dz2       0.000000 -0.987705 -0.000000  0.000000 -0.000000  0.000000
  0C   3dxz       0.000000 -0.000000  1.088661  1.089777  0.000053  0.000054
  0C   3dyz      -0.926532  0.000000 -0.000000 -0.000000  0.000000  0.000000
  0C   3dx2y2     0.000000  1.710756  0.000000 -0.000000  0.000000 -0.000000
  0C   3dxy       0.000000 -0.000000 -1.089777  1.088661  0.000054 -0.000053
  1O   1s        -0.000000 -0.020748  0.000000 -0.000000 -0.000000  0.000000
  1O   2s        -0.000000 -0.051738  0.000000 -0.000000 -0.000000  0.000000
  1O   3s         0.000000  0.114983 -0.000000  0.000000  0.000000 -0.000000
  1O   4s        -0.000000  0.064357  0.000000 -0.000000  0.000000 -0.000000
  1O   5s         0.000000  0.658921 -0.000000  0.000000  0.000000 -0.000000
  1O   1pz       -0.000000  0.000000 -0.066038 -0.066106 -0.003311 -0.003406
  1O   1px        0.000000  0.044076  0.000000 -0.000000  0.000000 -0.000000
  1O   1py       -0.000000  0.000000  0.066106 -0.066038 -0.003406  0.003311
  1O   2pz       -0.000000  0.000000 -0.051077 -0.051129 -0.015284 -0.015721
  1O   2px       -0.000000 -0.053579  0.000000 -0.000000 -0.000000  0.000000
  1O   2py       -0.000000  0.000000  0.051129 -0.051077 -0.015721  0.015284
  1O   3pz       -0.000000 -0.000000 -0.103253 -0.103359  0.054473  0.056029
  1O   3px        0.000000  0.686273  0.000000 -0.000000  0.000000 -0.000000
  1O   3py       -0.000000 -0.000000  0.103359 -0.103253  0.056029 -0.054473
  1O   1dz2       0.000000 -0.000523  0.000000 -0.000000 -0.000000  0.000000
  1O   1dxz      -0.000000 -0.000000 -0.002522 -0.002525  0.003257  0.003351
  1O   1dyz      -0.003100  0.000000  0.000000  0.000000  0.000000  0.000000
  1O   1dx2y2     0.000000  0.000906  0.000000 -0.000000  0.000000 -0.000000
  1O   1dxy      -0.000000 -0.000000  0.002525 -0.002522  0.003351 -0.003257
  1O   2dz2       0.000000 -0.003265  0.000000  0.000000 -0.000000 -0.000000
  1O   2dxz      -0.000000 -0.000000 -0.019537 -0.019557  0.003816  0.003925
  1O   2dyz      -0.006956  0.000000  0.000000  0.000000 -0.000000 -0.000000
  1O   2dx2y2     0.000000  0.005655  0.000000 -0.000000  0.000000 -0.000000
  1O   2dxy      -0.000000 -0.000000  0.019557 -0.019537  0.003925 -0.003816
  1O   1f0       -0.000000  0.000000 -0.000074 -0.000074 -0.000281 -0.000289
  1O   1f+1      -0.000000 -0.000212 -0.000000 -0.000000 -0.000000 -0.000000
  1O   1f-1      -0.000000  0.000000  0.000047 -0.000047 -0.000119  0.000116
  1O   1f+2       0.000000 -0.000000  0.000117  0.000117  0.000365  0.000375
  1O   1f-2       0.000747 -0.000000 -0.000000 -0.000000 -0.000000 -0.000000
  1O   1f+3       0.000000 -0.000274  0.000000 -0.000000 -0.000000  0.000000
  1O   1f-3      -0.000000  0.000000  0.000130 -0.000130 -0.000459  0.000446
  1O   6s        -0.000000 -6.105363  0.000000 -0.000000 -0.000000  0.000000
  1O   4pz       -0.000000 -0.000000 -0.447478 -0.447937  0.283907  0.292019
  1O   4px        0.000000  2.123682 -0.000000  0.000000  0.000000 -0.000000
  1O   4py       -0.000000 -0.000000  0.447937 -0.447478  0.292019 -0.283907
  1O   3dz2       0.000000  0.079893  0.000000 -0.000000  0.000000  0.000000
  1O   3dxz       0.000000  0.000000  0.014700  0.014715  0.084870  0.087295
  1O   3dyz      -0.105409  0.000000  0.000000  0.000000  0.000000  0.000000
  1O   3dx2y2     0.000000 -0.138378  0.000000 -0.000000 -0.000000  0.000000
  1O   3dxy      -0.000000  0.000000 -0.014715  0.014700  0.087295 -0.084870
  2O   1s        -0.000000 -0.020748 -0.000000  0.000000 -0.000000  0.000000
  2O   2s        -0.000000 -0.051738 -0.000000  0.000000 -0.000000  0.000000
  2O   3s         0.000000  0.114982  0.000000 -0.000000  0.000000 -0.000000
  2O   4s        -0.000000  0.064360  0.000000 -0.000000  0.000000 -0.000000
  2O   5s         0.000000  0.658908  0.000000 -0.000000  0.000000 -0.000000
  2O   1pz       -0.000000  0.000000  0.066039  0.066107 -0.003305 -0.003399
  2O   1px       -0.000000 -0.044077  0.000000 -0.000000 -0.000000  0.000000
  2O   1py       -0.000000  0.000000 -0.066107  0.066039 -0.003399  0.003305
  2O   2pz       -0.000000  0.000000  0.051078  0.051130 -0.015280 -0.015716
  2O   2px        0.000000  0.053580  0.000000 -0.000000  0.000000 -0.000000
  2O   2py       -0.000000  0.000000 -0.051130  0.051078 -0.015716  0.015280
  2O   3pz       -0.000000 -0.000000  0.103253  0.103358  0.054484  0.056041
  2O   3px       -0.000000 -0.686283  0.000000 -0.000000 -0.000000  0.000000
  2O   3py       -0.000000 -0.000000 -0.103358  0.103253  0.056041 -0.054484
  2O   1dz2       0.000000 -0.000523 -0.000000  0.000000 -0.000000  0.000000
  2O   1dxz       0.000000  0.000000 -0.002522 -0.002525 -0.003258 -0.003351
  2O   1dyz      -0.003100  0.000000 -0.000000 -0.000000  0.000000  0.000000
[...]
                         ORCA SCF GRADIENT CALCULATION
------------------------------------------------------------------------------

Nuc. rep. gradient        (SHARK) ... done (  0.0 sec)
HCore & Overlap gradient  (SHARK) ... done (  0.0 sec)
Split-RIJ-J gradient      (SHARK) ... done (  0.2 sec)
COSX-gradient                     ... done (  3.6 sec)
XC gradient                       ... done (  0.3 sec)

------------------
CARTESIAN GRADIENT
------------------

   1   C   :    0.000004269    0.000000047   -0.000000049
   2   O   :    0.096665752   -0.000000059    0.000000012
   3   O   :   -0.096670021    0.000000012    0.000000038

Difference to translation invariance:
           :    0.0000000000   -0.0000000000    0.0000000000

Difference to rotation invariance:
           :   -0.0000000000    0.0000001079   -0.0000002938

Norm of the Cartesian gradient     ...    0.1367090361
RMS gradient                       ...    0.0455696787
MAX gradient                       ...    0.0966700209

-------
TIMINGS
-------

Total SCF gradient time     ....        4.148 sec

Densities                   ....       0.000 sec  (  0.0%)
One electron gradient       ....       0.021 sec  (  0.5%)
RI-J Coulomb gradient       ....       0.217 sec  (  5.2%)
COSX gradient               ....       3.589 sec  ( 86.5%)
XC gradient                 ....       0.321 sec  (  7.7%)

Maximum memory used throughout the entire SCFGRAD-calculation: 13.4 MB

------------------------------------------------------------------------------
                              ORCA PROPERTY CALCULATIONS
------------------------------------------------------------------------------

GBWName                                 ... co2_freq.gbw
Number of atoms                         ...      3
Number of basis functions               ...    117
Max core memory                         ...   2000 MB

Electric properties:
Dipole moment                           ... YES
Quadrupole moment                       ...  NO
Static polarizability (Dipole/Dipole)   ...  NO
Static polarizability (Dipole/Quad.)    ...  NO
Static polarizability (Quad./Quad.)     ...  NO
Static polarizability (Velocity)        ...  NO

Atomic electric properties:
Dipole moment                           ...  NO
Quadrupole moment                       ...  NO
Static polarizability                   ...  NO

Choice of electric origin               ... Center of mass
Position of electric origin             ...    -0.000000    -0.000000    -0.000000

General magnetic properties:
Magnetizability                         ...  NO

EPR properties:
g-Tensor (aka g-matrix)                 ...  NO
Zero-Field splitting spin-orbit         ...  NO
Zero-field splitting spin-spin          ...  NO
Hyperfine couplings                     ...  NO (   0 nuclei)
Quadrupole couplings                    ...  NO (   0 nuclei)
Contact density                         ...  NO (   0 nuclei)

NMR properties:
Chemical shifts                         ...  NO (   0 nuclei)
Spin-rotation constants                 ...  NO (   0 nuclei)
Spin-spin couplings                     ...  NO (   0 nuclei,    0 pairs)

Choice of magnetic origin               ... GIAO
Position of magnetic origin             ...     0.000000     0.000000     0.000000

Properties with geometric perturbations:
SCF Hessian                             ...  NO
IR spectrum                             ...  NO
VCD spectrum                            ...  NO
X-ray spectroscopy properties:
SCF XES/XAS/RIXS spectra                ...  NO


-------------
DIPOLE MOMENT
-------------

Method             : SCF
Type of density    : Electron Density
Multiplicity       :   1
Irrep              :   0
Energy             :  -187.9306207856678270 Eh
Relativity type    : 
Basis              : AO
                                X                 Y                 Z
Electronic contribution:      0.000000286       0.000000157       0.000000059
Nuclear contribution   :      0.000000053      -0.000000000      -0.000000000
                        -----------------------------------------
Total Dipole Moment    :      0.000000339       0.000000156       0.000000059
                        -----------------------------------------
Magnitude (a.u.)       :      0.000000378
Magnitude (Debye)      :      0.000000960



--------------------
Rotational spectrum 
--------------------
 
Rotational constants in cm-1:             0.000000             0.109630             0.109630 
Rotational constants in MHz :             0.000000          3286.622985          3286.622985 

Dipole components along the rotational axes: 
x,y,z [a.u.] :     0.000000    -0.000000     0.000000 
x,y,z [Debye]:     0.000001    -0.000000     0.000000 

 

Dipole moment calculation done in   0.0 sec 

Maximum memory used throughout the entire PROP-calculation: 6.5 MB

----------------------------------------------------------------------------
                           ORCA NUMERICAL FREQUENCIES
----------------------------------------------------------------------------

Number of atoms                ... 3
Central differences            ... used
Number of displacements        ... 18
Numerical increment            ... 5.000e-03 bohr
IR-spectrum generation         ... on
Raman-spectrum generation      ... off
Surface Crossing Hessian       ... off

The output will be reduced. Please look at the following files:
SCF program output             ... >co2_freq.lastscf
Integral program output        ... >co2_freq.lastint
Gradient program output        ... >co2_freq.lastgrad
Dipole moment program output   ... >co2_freq.lastmom

	<< Calculating gradient on displaced geometry   1 (of  18) >>
	<< Calculating gradient on displaced geometry   2 (of  18) >>
	<< Calculating gradient on displaced geometry   3 (of  18) >>
	<< Calculating gradient on displaced geometry   4 (of  18) >>
	<< Calculating gradient on displaced geometry   5 (of  18) >>
	<< Calculating gradient on displaced geometry   6 (of  18) >>
	<< Calculating gradient on displaced geometry   7 (of  18) >>
	<< Calculating gradient on displaced geometry   8 (of  18) >>
	<< Calculating gradient on displaced geometry   9 (of  18) >>
	<< Calculating gradient on displaced geometry  10 (of  18) >>
	<< Calculating gradient on displaced geometry  11 (of  18) >>
	<< Calculating gradient on displaced geometry  12 (of  18) >>
	<< Calculating gradient on displaced geometry  13 (of  18) >>
	<< Calculating gradient on displaced geometry  14 (of  18) >>
	<< Calculating gradient on displaced geometry  15 (of  18) >>
	<< Calculating gradient on displaced geometry  16 (of  18) >>
	<< Calculating gradient on displaced geometry  17 (of  18) >>
	<< Calculating gradient on displaced geometry  18 (of  18) >>

-----------------------
VIBRATIONAL FREQUENCIES
-----------------------

Scaling factor for frequencies =  1.000000000  (already applied!)

     0:       0.00 cm**-1
     1:       0.00 cm**-1
     2:       0.00 cm**-1
     3:       0.00 cm**-1
     4:       0.00 cm**-1
     5:   -1021.09 cm**-1  ***imaginary mode***
     6:    -358.88 cm**-1  ***imaginary mode***
     7:     376.06 cm**-1
     8:     376.50 cm**-1


------------
NORMAL MODES
------------

These modes are the Cartesian displacements weighted by the diagonal matrix
M(i,i)=1/sqrt(m[i]) where m[i] is the mass of the displaced atom
Thus, these vectors are normalized but *not* orthogonal

                  0          1          2          3          4          5    
      0       0.000000   0.000000   0.000000   0.000000   0.000000   0.883262
      1       0.000000   0.000000   0.000000   0.000000   0.000000  -0.000004
      2       0.000000   0.000000   0.000000   0.000000   0.000000  -0.000206
      3       0.000000   0.000000   0.000000   0.000000   0.000000  -0.331552
      4       0.000000   0.000000   0.000000   0.000000   0.000000   0.000001
      5       0.000000   0.000000   0.000000   0.000000   0.000000   0.000077
      6       0.000000   0.000000   0.000000   0.000000   0.000000  -0.331543
      7       0.000000   0.000000   0.000000   0.000000   0.000000   0.000001
      8       0.000000   0.000000   0.000000   0.000000   0.000000   0.000077
                  6          7          8    
      0      -0.000007  -0.000002  -0.000206
      1       0.000075   0.882885  -0.025801
      2      -0.000021  -0.025801  -0.882885
      3      -0.707104   0.000049   0.000090
      4      -0.000028  -0.331405   0.009685
      5       0.000008   0.009685   0.331405
      6       0.707109  -0.000048   0.000065
      7      -0.000028  -0.331407   0.009685
      8       0.000008   0.009685   0.331407


-----------
IR SPECTRUM
-----------

 Mode   freq       eps      Int      T**2         TX        TY        TZ
       cm**-1   L/(mol*cm) km/mol    a.u.
----------------------------------------------------------------------------
  7:    376.06   0.002530   12.79  0.002100  (-0.000003  0.045801 -0.001360)
  8:    376.50   0.002613   13.21  0.002166  (-0.000151 -0.001337 -0.046520)

* The epsilon (eps) is given for a Dirac delta lineshape.
** The dipole moment derivative (T) already includes vibrational overlap.

The first frequency considered to be a vibration is 7
The total number of vibrations considered is 2


--------------------------
THERMOCHEMISTRY AT 298.15K
--------------------------

Temperature         ...   298.15 K
Pressure            ...     1.00 atm
Total Mass          ...    44.01 AMU
Quasi RRHO          ...     True
Cut-Off Frequency   ...     1.00 cm^-1
The molecule is recognized as being linear

Throughout the following assumptions are being made:
  (1) The electronic state is orbitally nondegenerate
  (2) There are no thermally accessible electronically excited states
  (3) Hindered rotations indicated by low frequency modes are not
      treated as such but are treated as vibrations and this may
      cause some error
  (4) All equations used are the standard statistical mechanics
      equations for an ideal gas
  (5) All vibrations are strictly harmonic

freq.     376.06  E(vib)   ...       0.21 
freq.     376.50  E(vib)   ...       0.21 

------------
INNER ENERGY
------------

The inner energy is: U= E(el) + E(ZPE) + E(vib) + E(rot) + E(trans)
    E(el)   - is the total energy from the electronic structure calculation
              = E(kin-el) + E(nuc-el) + E(el-el) + E(nuc-nuc)
    E(ZPE)  - the the zero temperature vibrational energy from the frequency calculation
    E(vib)  - the the finite temperature correction to E(ZPE) due to population
              of excited vibrational states
    E(rot)  - is the rotational thermal energy
    E(trans)- is the translational thermal energy

Summary of contributions to the inner energy U:
Electronic energy                ...   -187.93062079 Eh
Zero point energy                ...      0.00171446 Eh       1.08 kcal/mol
Thermal vibrational correction   ...      0.00066636 Eh       0.42 kcal/mol
Thermal rotational correction    ...      0.00094418 Eh       0.59 kcal/mol
Thermal translational correction ...      0.00141627 Eh       0.89 kcal/mol
-----------------------------------------------------------------------
Total thermal energy                   -187.92587951 Eh


Summary of corrections to the electronic energy:
(perhaps to be used in another calculation)
Total thermal correction                  0.00302681 Eh       1.90 kcal/mol
Non-thermal (ZPE) correction              0.00171446 Eh       1.08 kcal/mol
-----------------------------------------------------------------------
Total correction                          0.00474127 Eh       2.98 kcal/mol


--------
ENTHALPY
--------

The enthalpy is H = U + kB*T
                kB is Boltzmann's constant
Total thermal energy              ...   -187.92587951 Eh 
Thermal Enthalpy correction       ...      0.00094421 Eh       0.59 kcal/mol
-----------------------------------------------------------------------
Total Enthalpy                    ...   -187.92493530 Eh


Note: Rotational entropy computed according to Herzberg 
Infrared and Raman Spectra, Chapter V,1, Van Nostrand Reinhold, 1945 
Point Group:  D(inf)h, Symmetry Number:   1  
Rotational constants in cm-1:     0.000000     0.109630     0.109630 

Vibrational entropy computed according to the QRRHO of S. Grimme
Chem.Eur.J. 2012 18 9955 using a reference frequency of 100.0 cm-1


-------
ENTROPY
-------

The entropy contributions are T*S = T*(S(el)+S(vib)+S(rot)+S(trans))
     S(el)   - electronic entropy
     S(vib)  - vibrational entropy
     S(rot)  - rotational entropy
     S(trans)- translational entropy
The entropies will be listed as multiplied by the temperature to get
units of energy

Electronic entropy                ...      0.00000000 Eh      0.00 kcal/mol
Vibrational entropy               ...      0.00100397 Eh      0.63 kcal/mol
Rotational entropy                ...      0.00806751 Eh      5.06 kcal/mol
Translational entropy             ...      0.01770880 Eh     11.11 kcal/mol
-----------------------------------------------------------------------
Final entropy term                ...      0.02678028 Eh     16.80 kcal/mol

In case the symmetry of your molecule has not been determined correctly
or in case you have a reason to use a different symmetry number we print 
out the resulting rotational entropy values for sn=1,12:

 non-linear molecules -----------------------------------
|  sn= 1 | S(rot)=      -0.00415255 Eh     -2.61 kcal/mol|
|  sn= 2 | S(rot)=      -0.00480700 Eh     -3.02 kcal/mol|
|  sn= 3 | S(rot)=      -0.00518984 Eh     -3.26 kcal/mol|
|  sn= 4 | S(rot)=      -0.00546146 Eh     -3.43 kcal/mol|
|  sn= 5 | S(rot)=      -0.00567215 Eh     -3.56 kcal/mol|
|  sn= 6 | S(rot)=      -0.00584429 Eh     -3.67 kcal/mol|
|  sn= 7 | S(rot)=      -0.00598984 Eh     -3.76 kcal/mol|
|  sn= 8 | S(rot)=      -0.00611592 Eh     -3.84 kcal/mol|
|  sn= 9 | S(rot)=      -0.00622712 Eh     -3.91 kcal/mol|
|  sn=10 | S(rot)=      -0.00632660 Eh     -3.97 kcal/mol|
|  sn=11 | S(rot)=      -0.00641659 Eh     -4.03 kcal/mol|
|  sn=12 | S(rot)=      -0.00649875 Eh     -4.08 kcal/mol|
 linear molecules ---------------------------------------
|  Dinfh | S(rot)=       0.00741306 Eh      4.65 kcal/mol|
|  Cinfv | S(rot)=       0.00806751 Eh      5.06 kcal/mol|
 --------------------------------------------------------


-------------------
GIBBS FREE ENERGY
-------------------

The Gibbs free energy is G = H - T*S

Total enthalpy                    ...   -187.92493530 Eh 
Total entropy correction          ...     -0.02678028 Eh    -16.80 kcal/mol
-----------------------------------------------------------------------
Final Gibbs free energy         ...   -187.95171559 Eh

For completeness - the Gibbs free energy minus the electronic energy
G-E(el)                           ...     -0.02109480 Eh    -13.24 kcal/mol



--------------------------------
SUGGESTED CITATIONS FOR THIS RUN
--------------------------------

Below you find a list of papers that are relevant to this ORCA run
We neither can nor want to force you to cite these papers, but we appreciate if you do
You receive ORCA, which is the product of decades of hard work by many enthusiastic individuals, for free
The only thing we kindly ask in return is that you cite our papers,
We deeply appreciate it, if you show your appreciation for ORCA by not just citing the generic ORCA reference.

Please note that relegating all ORCA citations to the supporting information does *not* help us.
SI sections are not indexed - citations you put there will not count into any citation statistics
But we need these citations in order to attract the funding resources that allow us to do what we are doing

Therefore, if you are a happy ORCA user, please consider citing a few of the papers listed below in the main body of your paper

In addition to the list printed below, the program has created the file co2_freq.bibtex that contains the list in bibtex format
You can import this file easily into all common literature databanks and citation aid programs


List of essential papers. We consider these as the minimum necessary citations

  1. Neese,F.
     Software update: the ORCA program system, version 5.0
     WIRES Comput. Molec. Sci., 2022 12(1)e1606
     doi.org/10.1002/wcms.1606

List of papers to cite with high priority. The work reported in these papers was absolutely
necessary for this run to complete.
Our perspective: the developers of density functionals and basis sets usually get cited in chemistry papers
Good! But without the algorithms to do something with them, the functionals or basis sets would not do anything.
Hence, in our opinion, the algorithm design and method developments papers are equally worthy of getting cited

  1. Neese,F.
     An improvement of the resolution of the identity approximation for the formation of the Coulomb matrix
     J. Comp. Chem., 2003 24(14)1740-1747
     doi.org/10.1002/jcc.10318
  2. Neese,F.; Wennmohs,F.; Hansen,A.; Becker,U.
     Efficient, approximate and parallel Hartree-Fock and hybrid DFT calculations. A 'chain-of-spheres' algorithm for the Hartree-Fock exchange
     Chem. Phys., 2009 356(1-3)98-109
     doi.org/10.1016/j.chemphys.2008.10.036
  3. Bykov,D.; Petrenko,T.; Izsak,R.; Kossmann,S.; Becker,U.; Valeev,E.; Neese,F.
     Efficient implementation of the analytic second derivatives of Hartree-Fock and hybrid DFT energies: a detailed analysis of different approximations
     Molec. Phys., 2015 113 1961-1977
     doi.org/10.1080/00268976.2015.1025114
  4. Helmich-Paris,B.; de Souza,B.; Neese,F.; Izsák,R.
     An improved chain of spheres for exchange algorithm
     J. Chem. Phys., 2021 155 104109
     doi.org/doi: 10.1063/5.0058766.
  5. Neese,F.
     The SHARK Integral Generation and Digestion System
     J. Comp. Chem., 2022  1-16
     doi.org/10.1002/jcc.26942

List of suggested additional citations. These are papers that are important in the 'surrounding' of 
of this run, or papers that preceded the highly important papers. If you like your results we are grateful for a citation.

  1. Izsak,R.; Neese,F.
     An overlap fitted chain of spheres exchange method
     J. Chem. Phys., 2011 135 144105
     doi.org/10.1063/1.3646921
  2. Izsak,R.; Hansen,A.; Neese,F.
     The resolution of identity and chain of spheres approximations for the LPNO-CCSD singles Fock term
     Molec. Phys., 2012 110 2413-2417
     doi.org/10.1080/00268976.2012.687466
  3. Neese,F.
     The ORCA program system
     WIRES Comput. Molec. Sci., 2012 2(1)73-78
     doi.org/10.1002/wcms.81
  4. Izsak,R.; Neese,F.; Klopper,W.
     Robust fitting techniques in the chain of spheres approximation to the Fock exchange: The role of the complementary space
     J. Chem. Phys., 2013 139 
     doi.org/10.1063/1.4819264
  5. Neese,F.
     Software update: the ORCA program system, version 4.0
     WIRES Comput. Molec. Sci., 2018 8(1)1-6
     doi.org/10.1002/wcms.1327
  6. Neese,F.; Wennmohs,F.; Becker,U.; Riplinger,C.
     The ORCA quantum chemistry program package
     J. Chem. Phys., 2020 152 Art. No. L224108
     doi.org/10.1063/5.0004608

List of optional additional citations

  1. Neese,F.
     Approximate second-order SCF convergence for spin unrestricted wavefunctions
     Chem. Phys. Lett., 2000 325(1-3)93-98
     doi.org/10.1016/s0009-2614(00)00662-x

Timings for individual modules:

Sum of individual times          ...      230.206 sec (=   3.837 min)
Startup calculation              ...        0.569 sec (=   0.009 min)   0.2 %
SCF iterations                   ...       22.094 sec (=   0.368 min)   9.6 %
Property calculations            ...        0.063 sec (=   0.001 min)   0.0 %
SCF Gradient evaluation          ...        8.432 sec (=   0.141 min)   3.7 %
Numerical frequency calculation  ...      199.049 sec (=   3.317 min)  86.5 %
                             ****ORCA TERMINATED NORMALLY****
TOTAL RUN TIME: 0 days 0 hours 3 minutes 34 seconds 704 msec
